<?xml version="1.0" encoding="ISO-8859-1"?>
<modeling>
 <generator>
  <i name="program" type="string">vasp </i>
  <i name="version" type="string">5.4.4.18Apr17-6-g9f103f2a35  </i>
  <i name="subversion" type="string">(build Sep 07 2018 17:00:30) complex            parallel </i>
  <i name="platform" type="string">IFC18_ompi </i>
  <i name="date" type="string">2021 04 05 </i>
  <i name="time" type="string">20:47:18 </i>
 </generator>
 <incar>
  <i type="string" name="PREC">accurate</i>
  <i type="string" name="ALGO"> Fast</i>
  <i type="int" name="ISPIN">     2</i>
  <i type="int" name="ICHARG">     1</i>
  <i type="int" name="NELM">   100</i>
  <i type="int" name="IBRION">     2</i>
  <i name="EDIFF">      0.00000100</i>
  <i type="int" name="NSW">     0</i>
  <i type="int" name="ISIF">     3</i>
  <i name="ENCUT">    520.00000000</i>
  <v name="MAGMOM">      0.60000000      0.60000000      0.60000000      0.60000000      0.60000000      0.60000000      0.60000000      0.60000000      0.60000000      0.60000000      0.60000000      0.60000000      0.60000000      0.60000000</v>
  <i type="string" name="LREAL"> Auto</i>
  <i type="int" name="ISMEAR">     0</i>
  <i name="SIGMA">      0.20000000</i>
  <i type="logical" name="LWAVE"> F  </i>
  <i type="logical" name="LCHARG"> T  </i>
  <i type="int" name="LORBIT">    11</i>
  <i type="logical" name="LASPH"> T  </i>
  <i type="logical" name="GGA_COMPAT"> F  </i>
  <v type="int" name="KPOINT_BSE">    -1     0     0     0</v>
  <i type="int" name="NELM">   100</i>
  <i type="logical" name="LASPH"> T  </i>
 </incar>
 <structure name="primitive_cell" >
  <crystal>
   <varray name="basis" >
    <v>       8.72996100       0.00000000       0.00000000 </v>
    <v>      -4.36498100       7.56036800       0.00000000 </v>
    <v>       0.00000000       0.00000000      10.81646900 </v>
   </varray>
   <i name="volume">    713.90553438 </i>
   <varray name="rec_basis" >
    <v>       0.11454805       0.06613435       0.00000000 </v>
    <v>       0.00000000       0.13226869       0.00000000 </v>
    <v>       0.00000000       0.00000000       0.09245161 </v>
   </varray>
  </crystal>
  <varray name="positions" >
   <v>       0.00000000       0.00000000       0.00000000 </v>
   <v>      -0.50000000      -0.50000000       0.00000000 </v>
   <v>      -0.50000000       0.00000000       0.00000000 </v>
   <v>       0.00000000      -0.50000000       0.00000000 </v>
   <v>       0.16502400      -0.16502400      -0.33753400 </v>
   <v>      -0.16502400       0.16502400       0.33753400 </v>
   <v>      -0.33004900      -0.16502400      -0.33753400 </v>
   <v>       0.33004900       0.16502400       0.33753400 </v>
   <v>       0.16502400       0.33004900      -0.33753400 </v>
   <v>      -0.16502400      -0.33004900       0.33753400 </v>
   <v>       0.33333300      -0.33333300      -0.19248200 </v>
   <v>      -0.33333300       0.33333300       0.19248200 </v>
   <v>       0.33333300      -0.33333300       0.32532400 </v>
   <v>      -0.33333300       0.33333300      -0.32532400 </v>
  </varray>
 </structure>
 <varray name="primitive_index" >
  <v type="int" >        1 </v>
  <v type="int" >        8 </v>
  <v type="int" >        7 </v>
  <v type="int" >        6 </v>
  <v type="int" >        9 </v>
  <v type="int" >       12 </v>
  <v type="int" >       10 </v>
  <v type="int" >       13 </v>
  <v type="int" >       11 </v>
  <v type="int" >       14 </v>
  <v type="int" >        4 </v>
  <v type="int" >        5 </v>
  <v type="int" >        2 </v>
  <v type="int" >        3 </v>
 </varray>
 <kpoints>
  <generation param="Gamma">
   <v type="int" name="divisions">       3        3        2 </v>
   <v name="usershift">      0.00000000       0.00000000       0.00000000 </v>
   <v name="genvec1">      0.33333333       0.00000000       0.00000000 </v>
   <v name="genvec2">      0.00000000       0.33333333       0.00000000 </v>
   <v name="genvec3">      0.00000000       0.00000000       0.50000000 </v>
   <v name="shift">      0.00000000       0.00000000       0.00000000 </v>
  </generation>
  <varray name="kpointlist" >
   <v>       0.00000000       0.00000000       0.00000000 </v>
   <v>       0.33333333      -0.00000000       0.00000000 </v>
   <v>       0.33333333       0.33333333       0.00000000 </v>
   <v>       0.00000000       0.00000000       0.50000000 </v>
   <v>       0.33333333      -0.00000000       0.50000000 </v>
   <v>       0.33333333       0.33333333       0.50000000 </v>
  </varray>
  <varray name="weights" >
   <v>       0.05555556 </v>
   <v>       0.33333333 </v>
   <v>       0.11111111 </v>
   <v>       0.05555556 </v>
   <v>       0.33333333 </v>
   <v>       0.11111111 </v>
  </varray>
 </kpoints>
 <parameters>
  <separator name="general" >
   <i type="string" name="SYSTEM">unknown system</i>
   <i type="logical" name="LCOMPAT"> F  </i>
  </separator>
  <separator name="electronic" >
   <i type="string" name="PREC">accura</i>
   <i name="ENMAX">    520.00000000</i>
   <i name="ENAUG">    407.93300000</i>
   <i name="EDIFF">      0.00000100</i>
   <i type="int" name="IALGO">    68</i>
   <i type="int" name="IWAVPR">    10</i>
   <i type="int" name="NBANDS">    96</i>
   <i name="NELECT">    100.00000000</i>
   <i type="int" name="TURBO">     0</i>
   <i type="int" name="IRESTART">     0</i>
   <i type="int" name="NREBOOT">     0</i>
   <i type="int" name="NMIN">     0</i>
   <i name="EREF">      0.00000000</i>
   <separator name="electronic smearing" >
    <i type="int" name="ISMEAR">     0</i>
    <i name="SIGMA">      0.20000000</i>
    <i name="KSPACING">      0.50000000</i>
    <i type="logical" name="KGAMMA"> T  </i>
   </separator>
   <separator name="electronic projectors" >
    <i type="logical" name="LREAL"> T  </i>
    <v name="ROPT">     -0.00025000     -0.00025000     -0.00025000</v>
    <i type="int" name="LMAXPAW">  -100</i>
    <i type="int" name="LMAXMIX">     2</i>
    <i type="logical" name="NLSPLINE"> F  </i>
   </separator>
   <separator name="electronic startup" >
    <i type="int" name="ISTART">     0</i>
    <i type="int" name="ICHARG">     1</i>
    <i type="int" name="INIWAV">     1</i>
   </separator>
   <separator name="electronic spin" >
    <i type="int" name="ISPIN">     2</i>
    <i type="logical" name="LNONCOLLINEAR"> F  </i>
    <v name="MAGMOM">      0.60000000      0.60000000      0.60000000      0.60000000      0.60000000      0.60000000      0.60000000      0.60000000      0.60000000      0.60000000      0.60000000      0.60000000      0.60000000      0.60000000</v>
    <i name="NUPDOWN">     -1.00000000</i>
    <i type="logical" name="LSORBIT"> F  </i>
    <v name="SAXIS">      0.00000000      0.00000000      1.00000000</v>
    <i type="logical" name="LSPIRAL"> F  </i>
    <v name="QSPIRAL">      0.00000000      0.00000000      0.00000000</v>
    <i type="logical" name="LZEROZ"> F  </i>
   </separator>
   <separator name="electronic exchange-correlation" >
    <i type="logical" name="LASPH"> T  </i>
    <i type="logical" name="LMETAGGA"> F  </i>
   </separator>
   <separator name="electronic convergence" >
    <i type="int" name="NELM">   100</i>
    <i type="int" name="NELMDL">    -5</i>
    <i type="int" name="NELMIN">     2</i>
    <i name="ENINI">    520.00000000</i>
    <separator name="electronic convergence detail" >
     <i type="logical" name="LDIAG"> T  </i>
     <i type="logical" name="LSUBROT"> F  </i>
     <i name="WEIMIN">      0.00000000</i>
     <i name="EBREAK">      0.00000000</i>
     <i name="DEPER">      0.30000000</i>
     <i type="int" name="NRMM">     4</i>
     <i name="TIME">      0.40000000</i>
    </separator>
   </separator>
   <separator name="electronic mixer" >
    <i name="AMIX">      0.40000000</i>
    <i name="BMIX">      1.00000000</i>
    <i name="AMIN">      0.10000000</i>
    <i name="AMIX_MAG">      1.60000000</i>
    <i name="BMIX_MAG">      1.00000000</i>
    <separator name="electronic mixer details" >
     <i type="int" name="IMIX">     4</i>
     <i type="logical" name="MIXFIRST"> F  </i>
     <i type="int" name="MAXMIX">   -45</i>
     <i name="WC">    100.00000000</i>
     <i type="int" name="INIMIX">     1</i>
     <i type="int" name="MIXPRE">     1</i>
     <i type="int" name="MREMOVE">     5</i>
    </separator>
   </separator>
   <separator name="electronic dipolcorrection" >
    <i type="logical" name="LDIPOL"> F  </i>
    <i type="logical" name="LMONO"> F  </i>
    <i type="int" name="IDIPOL">     0</i>
    <i name="EPSILON">      1.00000000</i>
    <v name="DIPOL">   -100.00000000   -100.00000000   -100.00000000</v>
    <i name="EFIELD">      0.00000000</i>
   </separator>
  </separator>
  <separator name="grids" >
   <i type="int" name="NGX">    70</i>
   <i type="int" name="NGY">    70</i>
   <i type="int" name="NGZ">    80</i>
   <i type="int" name="NGXF">   140</i>
   <i type="int" name="NGYF">   140</i>
   <i type="int" name="NGZF">   160</i>
   <i type="logical" name="ADDGRID"> F  </i>
  </separator>
  <separator name="ionic" >
   <i type="int" name="NSW">     0</i>
   <i type="int" name="IBRION">    -1</i>
   <i type="int" name="MDALGO">     0</i>
   <i type="int" name="ISIF">     3</i>
   <i name="PSTRESS">      0.00000000</i>
   <i name="EDIFFG">      0.00001000</i>
   <i type="int" name="NFREE">     1</i>
   <i name="POTIM">      0.50000000</i>
   <i name="SMASS">     -3.00000000</i>
   <i name="SCALEE">      1.00000000</i>
  </separator>
  <separator name="ionic md" >
   <i name="TEBEG">      0.00010000</i>
   <i name="TEEND">      0.00010000</i>
   <i type="int" name="NBLOCK">     1</i>
   <i type="int" name="KBLOCK">     1</i>
   <i type="int" name="NPACO">   256</i>
   <i name="APACO">     16.00000000</i>
  </separator>
  <separator name="symmetry" >
   <i type="int" name="ISYM">     2</i>
   <i name="SYMPREC">      0.00001000</i>
  </separator>
  <separator name="dos" >
   <i type="int" name="LORBIT">    11</i>
   <v name="RWIGS">     -1.00000000     -1.00000000     -1.00000000</v>
   <i type="int" name="NEDOS">   301</i>
   <i name="EMIN">     10.00000000</i>
   <i name="EMAX">    -10.00000000</i>
   <i name="EFERMI">      0.00000000</i>
  </separator>
  <separator name="writing" >
   <i type="int" name="NWRITE">     2</i>
   <i type="logical" name="LWAVE"> F  </i>
   <i type="logical" name="LDOWNSAMPLE"> F  </i>
   <i type="logical" name="LCHARG"> T  </i>
   <i type="logical" name="LPARD"> F  </i>
   <i type="logical" name="LVTOT"> F  </i>
   <i type="logical" name="LVHAR"> F  </i>
   <i type="logical" name="LELF"> F  </i>
   <i type="logical" name="LOPTICS"> F  </i>
   <v name="STM">      0.00000000      0.00000000      0.00000000      0.00000000      0.00000000      0.00000000      0.00000000</v>
  </separator>
  <separator name="performance" >
   <i type="int" name="NPAR">    48</i>
   <i type="int" name="NSIM">     4</i>
   <i type="int" name="NBLK">    -1</i>
   <i type="logical" name="LPLANE"> T  </i>
   <i type="logical" name="LSCALAPACK"> T  </i>
   <i type="logical" name="LSCAAWARE"> F  </i>
   <i type="logical" name="LSCALU"> F  </i>
   <i type="logical" name="LASYNC"> F  </i>
   <i type="logical" name="LORBITALREAL"> F  </i>
  </separator>
  <separator name="miscellaneous" >
   <i type="int" name="IDIOT">     3</i>
   <i type="int" name="ISPECIAL">     0</i>
   <i type="logical" name="LMUSIC"> F  </i>
   <v name="POMASS">    132.90000000    208.98000000    126.90400000</v>
   <v name="DARWINR">      0.00000000      0.00000000      0.00000000</v>
   <v name="DARWINV">      1.00000000      1.00000000      1.00000000</v>
   <i type="logical" name="LCORR"> T  </i>
  </separator>
  <i type="logical" name="GGA_COMPAT"> F  </i>
  <i type="logical" name="LBERRY"> F  </i>
  <i type="int" name="ICORELEVEL">     0</i>
  <i type="logical" name="LDAU"> F  </i>
  <i type="int" name="I_CONSTRAINED_M">     0</i>
  <separator name="electronic exchange-correlation" >
   <i type="string" name="GGA">--</i>
   <i type="int" name="VOSKOWN">     0</i>
   <i type="logical" name="LHFCALC"> F  </i>
   <i type="string" name="PRECFOCK"></i>
   <i type="logical" name="LSYMGRAD"> F  </i>
   <i type="logical" name="LHFONE"> F  </i>
   <i type="logical" name="LRHFCALC"> F  </i>
   <i type="logical" name="LTHOMAS"> F  </i>
   <i type="logical" name="LMODELHF"> F  </i>
   <i name="ENCUT4O">     -1.00000000</i>
   <i type="int" name="EXXOEP">     0</i>
   <i type="int" name="FOURORBIT">     0</i>
   <i name="AEXX">      0.00000000</i>
   <i name="HFALPHA">      0.00000000</i>
   <i name="MCALPHA">      0.00000000</i>
   <i name="ALDAX">      1.00000000</i>
   <i name="AGGAX">      1.00000000</i>
   <i name="ALDAC">      1.00000000</i>
   <i name="AGGAC">      1.00000000</i>
   <i type="int" name="NKREDX">     1</i>
   <i type="int" name="NKREDY">     1</i>
   <i type="int" name="NKREDZ">     1</i>
   <i type="logical" name="SHIFTRED"> F  </i>
   <i type="logical" name="ODDONLY"> F  </i>
   <i type="logical" name="EVENONLY"> F  </i>
   <i type="int" name="LMAXFOCK">     0</i>
   <i type="int" name="NMAXFOCKAE">     0</i>
   <i type="logical" name="LFOCKAEDFT"> F  </i>
   <i name="HFSCREEN">      0.00000000</i>
   <i name="HFSCREENC">      0.00000000</i>
   <i type="int" name="NBANDSGWLOW">     0</i>
  </separator>
  <separator name="vdW DFT" >
   <i type="logical" name="LUSE_VDW"> F  </i>
   <i name="Zab_VDW">     -0.84910000</i>
   <i name="PARAM1">      0.12340000</i>
   <i name="PARAM2">      1.00000000</i>
   <i name="PARAM3">      0.00000000</i>
  </separator>
  <separator name="model GW" >
   <i type="int" name="MODEL_GW">     0</i>
   <i name="MODEL_EPS0">     30.59595147</i>
   <i name="MODEL_ALPHA">      1.00000000</i>
  </separator>
  <separator name="linear response parameters" >
   <i type="logical" name="LEPSILON"> F  </i>
   <i type="logical" name="LRPA"> F  </i>
   <i type="logical" name="LNABLA"> F  </i>
   <i type="logical" name="LVEL"> F  </i>
   <i type="int" name="KINTER">     0</i>
   <i name="CSHIFT">      0.10000000</i>
   <i name="OMEGAMAX">     -1.00000000</i>
   <i name="DEG_THRESHOLD">      0.00200000</i>
   <i name="RTIME">     -0.10000000</i>
   <i name="WPLASMAI">      0.00000000</i>
   <v name="DFIELD">      0.00000000      0.00000000      0.00000000</v>
   <v name="WPLASMA">      0.00000000      0.00000000      0.00000000      0.00000000      0.00000000      0.00000000      0.00000000      0.00000000      0.00000000</v>
  </separator>
  <separator name="orbital magnetization" >
   <i type="logical" name="NUCIND"> F  </i>
   <v name="MAGPOS">      0.00000000      0.00000000      0.00000000</v>
   <i type="logical" name="LNICSALL"> T  </i>
   <i type="logical" name="ORBITALMAG"> F  </i>
   <i type="logical" name="LMAGBLOCH"> F  </i>
   <i type="logical" name="LCHIMAG"> F  </i>
   <i type="logical" name="LGAUGE"> T  </i>
   <i type="int" name="MAGATOM">     0</i>
   <v name="MAGDIPOL">      0.00000000      0.00000000      0.00000000</v>
   <v name="AVECCONST">      0.00000000      0.00000000      0.00000000</v>
  </separator>
  <separator name="response functions" >
   <i type="logical" name="LADDER"> F  </i>
   <i type="logical" name="LRPAFORCE"> F  </i>
   <i type="logical" name="LFXC"> F  </i>
   <i type="logical" name="LHARTREE"> T  </i>
   <i type="int" name="IBSE">     0</i>
   <v type="int" name="KPOINT">    -1     0     0     0</v>
   <i type="logical" name="LTCTE"> F  </i>
   <i type="logical" name="LTETE"> F  </i>
   <i type="logical" name="LTRIPLET"> F  </i>
   <i type="logical" name="LFXCEPS"> F  </i>
   <i type="logical" name="LFXHEG"> F  </i>
   <i type="int" name="NATURALO">     2</i>
   <i type="logical" name="L2ORDER"> F  </i>
   <i type="logical" name="LMP2LT"> F  </i>
   <i type="logical" name="LUSEW"> F  </i>
   <i name="ENCUTGW">     -2.00000000</i>
   <i name="ENCUTGWSOFT">     -2.00000000</i>
   <i name="ENCUTLF">     -1.00000000</i>
   <i type="int" name="LMAXMP2">    -1</i>
   <i name="SCISSOR">      0.00000000</i>
   <i type="int" name="NOMEGA">     0</i>
   <i type="int" name="NOMEGAR">     0</i>
   <i type="int" name="NBANDSGW">    -1</i>
   <i type="int" name="NBANDSO">    -1</i>
   <i type="int" name="NBANDSV">    -1</i>
   <i type="int" name="NELM">   100</i>
   <i type="int" name="NELMHF">     1</i>
   <i type="int" name="DIM">     3</i>
   <i type="int" name="ANTIRES">     0</i>
   <i name="OMEGAMAX">    -30.00000000</i>
   <i name="OMEGAMIN">    -30.00000000</i>
   <i name="OMEGATL">   -200.00000000</i>
   <i type="int" name="OMEGAGRID">   140</i>
   <i name="CSHIFT">     -0.10000000</i>
   <i type="logical" name="SELFENERGY"> F  </i>
   <i type="logical" name="LSPECTRAL"> F  </i>
   <i type="logical" name="LSPECTRALGW"> F  </i>
   <i type="logical" name="LSINGLES"> F  </i>
   <i type="logical" name="LFERMIGW"> F  </i>
   <i type="logical" name="ODDONLYGW"> F  </i>
   <i type="logical" name="EVENONLYGW"> F  </i>
   <i type="int" name="NKREDLFX">     1</i>
   <i type="int" name="NKREDLFY">     1</i>
   <i type="int" name="NKREDLFZ">     1</i>
   <i type="int" name="MAXMEM">  2800</i>
   <i type="int" name="TELESCOPE">     0</i>
   <i type="int" name="TAUPAR">     1</i>
   <i type="int" name="OMEGAPAR">    -1</i>
   <i name="LAMBDA">      1.00000000</i>
  </separator>
  <separator name="External order field" >
   <i name="OFIELD_KAPPA">      0.00000000</i>
   <v name="OFIELD_K">      0.00000000      0.00000000      0.00000000</v>
   <i name="OFIELD_Q6_NEAR">      0.00000000</i>
   <i name="OFIELD_Q6_FAR">      0.00000000</i>
   <i name="OFIELD_A">      0.00000000</i>
  </separator>
 </parameters>
 <atominfo>
  <atoms>      14 </atoms>
  <types>       3 </types>
  <array name="atoms" >
   <dimension dim="1">ion</dimension>
   <field type="string">element</field>
   <field type="int">atomtype</field>
   <set>
    <rc><c>Cs</c><c>   1</c></rc>
    <rc><c>Cs</c><c>   1</c></rc>
    <rc><c>Cs</c><c>   1</c></rc>
    <rc><c>Bi</c><c>   2</c></rc>
    <rc><c>Bi</c><c>   2</c></rc>
    <rc><c>I </c><c>   3</c></rc>
    <rc><c>I </c><c>   3</c></rc>
    <rc><c>I </c><c>   3</c></rc>
    <rc><c>I </c><c>   3</c></rc>
    <rc><c>I </c><c>   3</c></rc>
    <rc><c>I </c><c>   3</c></rc>
    <rc><c>I </c><c>   3</c></rc>
    <rc><c>I </c><c>   3</c></rc>
    <rc><c>I </c><c>   3</c></rc>
   </set>
  </array>
  <array name="atomtypes" >
   <dimension dim="1">type</dimension>
   <field type="int">atomspertype</field>
   <field type="string">element</field>
   <field>mass</field>
   <field>valence</field>
   <field type="string">pseudopotential</field>
   <set>
    <rc><c>   3</c><c>Cs</c><c>    132.90000000</c><c>      9.00000000</c><c>  PAW_PBE Cs_sv 08Apr2002               </c></rc>
    <rc><c>   2</c><c>Bi</c><c>    208.98000000</c><c>      5.00000000</c><c>  PAW_PBE Bi 08Apr2002                  </c></rc>
    <rc><c>   9</c><c>I </c><c>    126.90400000</c><c>      7.00000000</c><c>  PAW_PBE I 08Apr2002                   </c></rc>
   </set>
  </array>
 </atominfo>
 <structure name="initialpos" >
  <crystal>
   <varray name="basis" >
    <v>       8.72996100       0.00000000       0.00000000 </v>
    <v>      -4.36498100       7.56036800       0.00000000 </v>
    <v>       0.00000000       0.00000000      10.81646900 </v>
   </varray>
   <i name="volume">    713.90553438 </i>
   <varray name="rec_basis" >
    <v>       0.11454805       0.06613435       0.00000000 </v>
    <v>       0.00000000       0.13226869       0.00000000 </v>
    <v>       0.00000000       0.00000000       0.09245161 </v>
   </varray>
  </crystal>
  <varray name="positions" >
   <v>       0.00000000       0.00000000       0.00000000 </v>
   <v>       0.33333300       0.66666700       0.32532400 </v>
   <v>       0.66666700       0.33333300       0.67467600 </v>
   <v>       0.33333300       0.66666700       0.80751800 </v>
   <v>       0.66666700       0.33333300       0.19248200 </v>
   <v>       0.00000000       0.50000000       0.00000000 </v>
   <v>       0.50000000       0.00000000       0.00000000 </v>
   <v>       0.50000000       0.50000000       0.00000000 </v>
   <v>       0.16502400       0.83497600       0.66246600 </v>
   <v>       0.66995100       0.83497600       0.66246600 </v>
   <v>       0.16502400       0.33004900       0.66246600 </v>
   <v>       0.83497600       0.16502400       0.33753400 </v>
   <v>       0.33004900       0.16502400       0.33753400 </v>
   <v>       0.83497600       0.66995100       0.33753400 </v>
  </varray>
 </structure>
 <calculation>
  <scstep>
   <time name="dav">    8.62    8.63</time>
   <time name="total">    9.66    9.68</time>
   <energy>
    <i name="alphaZ">    111.26485309 </i>
    <i name="ewald">  -3983.74970960 </i>
    <i name="hartreedc">   -667.31796089 </i>
    <i name="XCdc">   -309.27811697 </i>
    <i name="pawpsdc">   4171.24520665 </i>
    <i name="pawaedc">  -3679.92635975 </i>
    <i name="eentropy">     -0.13978666 </i>
    <i name="bandstr">     82.84515654 </i>
    <i name="atom">   4811.47480425 </i>
    <i name="e_fr_energy">    536.41808665 </i>
    <i name="e_wo_entrp">    536.55787331 </i>
    <i name="e_0_energy">    536.48797998 </i>
   </energy>
  </scstep>
  <scstep>
   <time name="dav">   11.01   11.04</time>
   <time name="total">   11.01   11.04</time>
   <energy>
    <i name="e_fr_energy">      8.45953446 </i>
    <i name="e_wo_entrp">      8.45953446 </i>
    <i name="e_0_energy">      8.45953446 </i>
   </energy>
  </scstep>
  <scstep>
   <time name="dav">   12.62   12.64</time>
   <time name="total">   12.62   12.64</time>
   <energy>
    <i name="e_fr_energy">    -37.44403701 </i>
    <i name="e_wo_entrp">    -37.44403701 </i>
    <i name="e_0_energy">    -37.44403701 </i>
   </energy>
  </scstep>
  <scstep>
   <time name="dav">   12.19   12.22</time>
   <time name="total">   12.19   12.22</time>
   <energy>
    <i name="e_fr_energy">    -38.29504111 </i>
    <i name="e_wo_entrp">    -38.29504111 </i>
    <i name="e_0_energy">    -38.29504111 </i>
   </energy>
  </scstep>
  <scstep>
   <time name="dav">   12.56   12.58</time>
   <time name="total">   13.26   13.29</time>
   <energy>
    <i name="e_fr_energy">    -38.29726920 </i>
    <i name="e_wo_entrp">    -38.29726920 </i>
    <i name="e_0_energy">    -38.29726920 </i>
   </energy>
  </scstep>
  <scstep>
   <time name="diag">    1.64    1.65</time>
   <time name="diis">    6.14    6.15</time>
   <time name="orth">    3.95    3.96</time>
   <time name="total">   13.55   13.57</time>
   <energy>
    <i name="e_fr_energy">    -37.22464362 </i>
    <i name="e_wo_entrp">    -37.22464362 </i>
    <i name="e_0_energy">    -37.22464362 </i>
   </energy>
  </scstep>
  <scstep>
   <time name="diag">    1.63    1.63</time>
   <time name="diis">    6.18    6.19</time>
   <time name="orth">    4.00    3.99</time>
   <time name="total">   13.58   13.58</time>
   <energy>
    <i name="e_fr_energy">    -37.46691586 </i>
    <i name="e_wo_entrp">    -37.46691586 </i>
    <i name="e_0_energy">    -37.46691586 </i>
   </energy>
  </scstep>
  <scstep>
   <time name="diag">    1.64    1.65</time>
   <time name="diis">    6.22    6.23</time>
   <time name="orth">    3.95    3.93</time>
   <time name="total">   13.62   13.62</time>
   <energy>
    <i name="e_fr_energy">    -37.56677651 </i>
    <i name="e_wo_entrp">    -37.56677651 </i>
    <i name="e_0_energy">    -37.56677651 </i>
   </energy>
  </scstep>
  <scstep>
   <time name="diag">    1.65    1.65</time>
   <time name="diis">    6.25    6.26</time>
   <time name="orth">    4.14    4.17</time>
   <time name="total">   13.85   13.90</time>
   <energy>
    <i name="e_fr_energy">    -37.58496668 </i>
    <i name="e_wo_entrp">    -37.58496668 </i>
    <i name="e_0_energy">    -37.58496668 </i>
   </energy>
  </scstep>
  <scstep>
   <time name="diag">    1.64    1.65</time>
   <time name="diis">    6.58    6.59</time>
   <time name="orth">    4.17    4.16</time>
   <time name="total">   14.16   14.19</time>
   <energy>
    <i name="e_fr_energy">    -37.58671556 </i>
    <i name="e_wo_entrp">    -37.58671556 </i>
    <i name="e_0_energy">    -37.58671556 </i>
   </energy>
  </scstep>
  <scstep>
   <time name="diag">    1.63    1.63</time>
   <time name="diis">    6.24    6.26</time>
   <time name="orth">    4.05    4.07</time>
   <time name="total">   13.71   13.76</time>
   <energy>
    <i name="e_fr_energy">    -37.58736131 </i>
    <i name="e_wo_entrp">    -37.58736131 </i>
    <i name="e_0_energy">    -37.58736131 </i>
   </energy>
  </scstep>
  <scstep>
   <time name="diag">    1.65    1.65</time>
   <time name="diis">    6.32    6.34</time>
   <time name="orth">    3.95    4.02</time>
   <time name="total">   13.74   13.83</time>
   <energy>
    <i name="e_fr_energy">    -37.58786108 </i>
    <i name="e_wo_entrp">    -37.58786108 </i>
    <i name="e_0_energy">    -37.58786108 </i>
   </energy>
  </scstep>
  <scstep>
   <time name="diag">    1.62    1.63</time>
   <time name="diis">    6.19    6.26</time>
   <time name="orth">    4.01    4.01</time>
   <time name="total">   13.63   13.70</time>
   <energy>
    <i name="e_fr_energy">    -37.58794657 </i>
    <i name="e_wo_entrp">    -37.58794657 </i>
    <i name="e_0_energy">    -37.58794657 </i>
   </energy>
  </scstep>
  <scstep>
   <time name="diag">    1.63    1.64</time>
   <time name="diis">    6.33    6.34</time>
   <time name="orth">    3.91    3.99</time>
   <time name="total">   13.69   13.78</time>
   <energy>
    <i name="e_fr_energy">    -37.58796547 </i>
    <i name="e_wo_entrp">    -37.58796547 </i>
    <i name="e_0_energy">    -37.58796547 </i>
   </energy>
  </scstep>
  <scstep>
   <time name="diag">    1.65    1.65</time>
   <time name="diis">    5.83    5.84</time>
   <time name="orth">    4.16    4.10</time>
   <time name="total">   13.45   13.41</time>
   <energy>
    <i name="e_fr_energy">    -37.58796918 </i>
    <i name="e_wo_entrp">    -37.58796918 </i>
    <i name="e_0_energy">    -37.58796918 </i>
   </energy>
  </scstep>
  <scstep>
   <time name="diag">    1.63    1.64</time>
   <time name="diis">    5.48    5.49</time>
   <time name="orth">    4.02    4.07</time>
   <time name="total">   12.22   12.28</time>
   <energy>
    <i name="alphaZ">    111.26485309 </i>
    <i name="ewald">  -3983.74970960 </i>
    <i name="hartreedc">   -680.68401009 </i>
    <i name="XCdc">   -307.13276157 </i>
    <i name="pawpsdc">   5047.39897921 </i>
    <i name="pawaedc">  -4556.78797347 </i>
    <i name="eentropy">     -0.00000000 </i>
    <i name="bandstr">   -479.37215182 </i>
    <i name="atom">   4811.47480425 </i>
    <i name="e_fr_energy">    -37.58797000 </i>
    <i name="e_wo_entrp">    -37.58797000 </i>
    <i name="e_0_energy">    -37.58797000 </i>
   </energy>
  </scstep>
  <structure>
   <crystal>
    <varray name="basis" >
     <v>       8.72996100       0.00000000       0.00000000 </v>
     <v>      -4.36498100       7.56036800       0.00000000 </v>
     <v>       0.00000000       0.00000000      10.81646900 </v>
    </varray>
    <i name="volume">    713.90553438 </i>
    <varray name="rec_basis" >
     <v>       0.11454805       0.06613435       0.00000000 </v>
     <v>       0.00000000       0.13226869       0.00000000 </v>
     <v>       0.00000000       0.00000000       0.09245161 </v>
    </varray>
   </crystal>
   <varray name="positions" >
    <v>       0.00000000       0.00000000       0.00000000 </v>
    <v>       0.33333300       0.66666700       0.32532400 </v>
    <v>       0.66666700       0.33333300       0.67467600 </v>
    <v>       0.33333300       0.66666700       0.80751800 </v>
    <v>       0.66666700       0.33333300       0.19248200 </v>
    <v>       0.00000000       0.50000000       0.00000000 </v>
    <v>       0.50000000       0.00000000       0.00000000 </v>
    <v>       0.50000000       0.50000000       0.00000000 </v>
    <v>       0.16502400       0.83497600       0.66246600 </v>
    <v>       0.66995100       0.83497600       0.66246600 </v>
    <v>       0.16502400       0.33004900       0.66246600 </v>
    <v>       0.83497600       0.16502400       0.33753400 </v>
    <v>       0.33004900       0.16502400       0.33753400 </v>
    <v>       0.83497600       0.66995100       0.33753400 </v>
   </varray>
  </structure>
  <varray name="forces" >
   <v>      -0.00000000       0.00000000       0.00000000 </v>
   <v>      -0.00000000       0.00000000       0.00071438 </v>
   <v>      -0.00000000       0.00000000      -0.00071438 </v>
   <v>      -0.00000000      -0.00000000       0.06851322 </v>
   <v>      -0.00000000       0.00000000      -0.06851322 </v>
   <v>      -0.00000000       0.00000000       0.00000000 </v>
   <v>      -0.00000000       0.00000000       0.00000000 </v>
   <v>      -0.00000000       0.00000000       0.00000000 </v>
   <v>       0.09663907      -0.05579459       0.05628177 </v>
   <v>      -0.09663906      -0.05579459       0.05628177 </v>
   <v>      -0.00000001       0.11158918       0.05628177 </v>
   <v>      -0.09663907       0.05579459      -0.05628177 </v>
   <v>       0.09663906       0.05579459      -0.05628177 </v>
   <v>       0.00000001      -0.11158918      -0.05628177 </v>
  </varray>
  <varray name="stress" >
   <v>      -1.98996214       0.00000013       0.00000000 </v>
   <v>       0.00000013      -1.98996214       0.00000000 </v>
   <v>       0.00000000       0.00000000      -2.07943108 </v>
  </varray>
  <energy>
   <i name="e_fr_energy">    -37.58797000 </i>
   <i name="e_wo_entrp">    -37.58797000 </i>
   <i name="e_0_energy">     -0.00000000 </i>
  </energy>
  <time name="totalsc">  226.80  227.45</time>
  <eigenvalues>
   <array>
    <dimension dim="1">band</dimension>
    <dimension dim="2">kpoint</dimension>
    <dimension dim="3">spin</dimension>
    <field>eigene</field>
    <field>occ</field>
    <set>
     <set comment="spin 1">
      <set comment="kpoint 1">
       <r>  -19.7976    1.0000 </r>
       <r>  -19.7926    1.0000 </r>
       <r>  -19.7921    1.0000 </r>
       <r>  -11.2701    1.0000 </r>
       <r>  -11.0111    1.0000 </r>
       <r>  -10.3291    1.0000 </r>
       <r>  -10.2348    1.0000 </r>
       <r>  -10.2347    1.0000 </r>
       <r>  -10.2294    1.0000 </r>
       <r>  -10.2294    1.0000 </r>
       <r>  -10.0481    1.0000 </r>
       <r>  -10.0480    1.0000 </r>
       <r>   -8.6966    1.0000 </r>
       <r>   -8.3200    1.0000 </r>
       <r>   -6.5974    1.0000 </r>
       <r>   -6.5974    1.0000 </r>
       <r>   -6.5934    1.0000 </r>
       <r>   -6.5934    1.0000 </r>
       <r>   -6.5858    1.0000 </r>
       <r>   -6.5855    1.0000 </r>
       <r>   -6.5855    1.0000 </r>
       <r>   -6.5845    1.0000 </r>
       <r>   -6.5770    1.0000 </r>
       <r>   -2.3571    1.0000 </r>
       <r>   -2.2451    1.0000 </r>
       <r>   -2.2451    1.0000 </r>
       <r>   -1.4661    1.0000 </r>
       <r>   -1.2915    1.0000 </r>
       <r>   -1.2915    1.0000 </r>
       <r>   -0.7660    1.0000 </r>
       <r>   -0.5965    1.0000 </r>
       <r>   -0.5965    1.0000 </r>
       <r>   -0.5560    1.0000 </r>
       <r>   -0.5191    1.0000 </r>
       <r>   -0.5191    1.0000 </r>
       <r>   -0.1788    1.0000 </r>
       <r>   -0.1788    1.0000 </r>
       <r>    0.1561    1.0000 </r>
       <r>    0.1633    1.0000 </r>
       <r>    0.1633    1.0000 </r>
       <r>    0.1921    1.0000 </r>
       <r>    0.3255    1.0000 </r>
       <r>    0.3255    1.0000 </r>
       <r>    0.5310    1.0000 </r>
       <r>    0.5310    1.0000 </r>
       <r>    0.5859    1.0000 </r>
       <r>    0.6218    1.0000 </r>
       <r>    0.6219    1.0000 </r>
       <r>    0.6291    1.0000 </r>
       <r>    0.6442    1.0000 </r>
       <r>    2.6059    0.0000 </r>
       <r>    3.4973    0.0000 </r>
       <r>    3.4973    0.0000 </r>
       <r>    4.3424    0.0000 </r>
       <r>    4.4395    0.0000 </r>
       <r>    4.4395    0.0000 </r>
       <r>    4.6956    0.0000 </r>
       <r>    5.6167    0.0000 </r>
       <r>    5.6167    0.0000 </r>
       <r>    5.8422    0.0000 </r>
       <r>    5.9318    0.0000 </r>
       <r>    6.0462    0.0000 </r>
       <r>    6.0462    0.0000 </r>
       <r>    6.0828    0.0000 </r>
       <r>    6.6677    0.0000 </r>
       <r>    6.6677    0.0000 </r>
       <r>    6.6734    0.0000 </r>
       <r>    6.6734    0.0000 </r>
       <r>    6.8378    0.0000 </r>
       <r>    6.8448    0.0000 </r>
       <r>    7.5756    0.0000 </r>
       <r>    7.5757    0.0000 </r>
       <r>    7.5934    0.0000 </r>
       <r>    7.5934    0.0000 </r>
       <r>    8.2400    0.0000 </r>
       <r>    8.2870    0.0000 </r>
       <r>    8.4066    0.0000 </r>
       <r>    8.4066    0.0000 </r>
       <r>    8.4411    0.0000 </r>
       <r>    8.7543    0.0000 </r>
       <r>    8.8085    0.0000 </r>
       <r>    8.8085    0.0000 </r>
       <r>    8.8406    0.0000 </r>
       <r>    8.8406    0.0000 </r>
       <r>    9.0130    0.0000 </r>
       <r>    9.0131    0.0000 </r>
       <r>    9.2272    0.0000 </r>
       <r>    9.2272    0.0000 </r>
       <r>    9.3056    0.0000 </r>
       <r>    9.6917    0.0000 </r>
       <r>    9.7196    0.0000 </r>
       <r>    9.9677    0.0000 </r>
       <r>   10.3433    0.0000 </r>
       <r>   10.3435    0.0000 </r>
       <r>   10.5323    0.0000 </r>
       <r>   10.5422    0.0000 </r>
      </set>
      <set comment="kpoint 2">
       <r>  -19.7976    1.0000 </r>
       <r>  -19.7925    1.0000 </r>
       <r>  -19.7922    1.0000 </r>
       <r>  -11.2012    1.0000 </r>
       <r>  -11.0439    1.0000 </r>
       <r>  -10.3345    1.0000 </r>
       <r>  -10.2747    1.0000 </r>
       <r>  -10.2725    1.0000 </r>
       <r>  -10.2400    1.0000 </r>
       <r>  -10.1814    1.0000 </r>
       <r>  -10.1189    1.0000 </r>
       <r>  -10.0596    1.0000 </r>
       <r>   -8.5630    1.0000 </r>
       <r>   -8.3530    1.0000 </r>
       <r>   -6.5900    1.0000 </r>
       <r>   -6.5867    1.0000 </r>
       <r>   -6.5855    1.0000 </r>
       <r>   -6.5831    1.0000 </r>
       <r>   -6.5830    1.0000 </r>
       <r>   -6.5817    1.0000 </r>
       <r>   -6.5760    1.0000 </r>
       <r>   -6.5738    1.0000 </r>
       <r>   -6.5713    1.0000 </r>
       <r>   -2.3589    1.0000 </r>
       <r>   -2.1275    1.0000 </r>
       <r>   -2.1169    1.0000 </r>
       <r>   -1.5834    1.0000 </r>
       <r>   -1.4552    1.0000 </r>
       <r>   -1.2673    1.0000 </r>
       <r>   -0.8773    1.0000 </r>
       <r>   -0.6831    1.0000 </r>
       <r>   -0.5100    1.0000 </r>
       <r>   -0.4516    1.0000 </r>
       <r>   -0.3647    1.0000 </r>
       <r>   -0.3564    1.0000 </r>
       <r>   -0.1747    1.0000 </r>
       <r>   -0.0871    1.0000 </r>
       <r>   -0.0100    1.0000 </r>
       <r>   -0.0006    1.0000 </r>
       <r>    0.0637    1.0000 </r>
       <r>    0.1724    1.0000 </r>
       <r>    0.2083    1.0000 </r>
       <r>    0.2587    1.0000 </r>
       <r>    0.3123    1.0000 </r>
       <r>    0.3189    1.0000 </r>
       <r>    0.3633    1.0000 </r>
       <r>    0.4259    1.0000 </r>
       <r>    0.4919    1.0000 </r>
       <r>    0.6296    1.0000 </r>
       <r>    0.7307    1.0000 </r>
       <r>    3.1105    0.0000 </r>
       <r>    3.3290    0.0000 </r>
       <r>    3.3894    0.0000 </r>
       <r>    4.2394    0.0000 </r>
       <r>    4.7282    0.0000 </r>
       <r>    4.7466    0.0000 </r>
       <r>    5.3629    0.0000 </r>
       <r>    6.0194    0.0000 </r>
       <r>    6.0453    0.0000 </r>
       <r>    6.1569    0.0000 </r>
       <r>    6.3955    0.0000 </r>
       <r>    6.4869    0.0000 </r>
       <r>    6.6411    0.0000 </r>
       <r>    6.6733    0.0000 </r>
       <r>    6.7250    0.0000 </r>
       <r>    6.8048    0.0000 </r>
       <r>    6.8761    0.0000 </r>
       <r>    7.0339    0.0000 </r>
       <r>    7.1251    0.0000 </r>
       <r>    7.2050    0.0000 </r>
       <r>    7.3232    0.0000 </r>
       <r>    7.4137    0.0000 </r>
       <r>    7.5674    0.0000 </r>
       <r>    7.8418    0.0000 </r>
       <r>    7.9244    0.0000 </r>
       <r>    7.9897    0.0000 </r>
       <r>    8.0926    0.0000 </r>
       <r>    8.3365    0.0000 </r>
       <r>    8.3803    0.0000 </r>
       <r>    8.3803    0.0000 </r>
       <r>    8.4986    0.0000 </r>
       <r>    8.5483    0.0000 </r>
       <r>    8.6172    0.0000 </r>
       <r>    8.6681    0.0000 </r>
       <r>    8.7535    0.0000 </r>
       <r>    8.7573    0.0000 </r>
       <r>    8.9130    0.0000 </r>
       <r>    8.9265    0.0000 </r>
       <r>    9.1712    0.0000 </r>
       <r>    9.2865    0.0000 </r>
       <r>    9.3168    0.0000 </r>
       <r>    9.7009    0.0000 </r>
       <r>    9.7505    0.0000 </r>
       <r>    9.8143    0.0000 </r>
       <r>    9.9985    0.0000 </r>
       <r>   10.1333    0.0000 </r>
      </set>
      <set comment="kpoint 3">
       <r>  -19.7975    1.0000 </r>
       <r>  -19.7923    1.0000 </r>
       <r>  -19.7923    1.0000 </r>
       <r>  -11.1134    1.0000 </r>
       <r>  -11.1134    1.0000 </r>
       <r>  -10.3912    1.0000 </r>
       <r>  -10.2453    1.0000 </r>
       <r>  -10.2453    1.0000 </r>
       <r>  -10.2386    1.0000 </r>
       <r>  -10.1705    1.0000 </r>
       <r>  -10.1705    1.0000 </r>
       <r>  -10.0818    1.0000 </r>
       <r>   -8.4343    1.0000 </r>
       <r>   -8.4343    1.0000 </r>
       <r>   -6.5866    1.0000 </r>
       <r>   -6.5817    1.0000 </r>
       <r>   -6.5817    1.0000 </r>
       <r>   -6.5764    1.0000 </r>
       <r>   -6.5756    1.0000 </r>
       <r>   -6.5756    1.0000 </r>
       <r>   -6.5731    1.0000 </r>
       <r>   -6.5731    1.0000 </r>
       <r>   -6.5729    1.0000 </r>
       <r>   -2.1520    1.0000 </r>
       <r>   -2.1520    1.0000 </r>
       <r>   -2.1104    1.0000 </r>
       <r>   -1.9298    1.0000 </r>
       <r>   -1.2365    1.0000 </r>
       <r>   -1.2365    1.0000 </r>
       <r>   -0.7518    1.0000 </r>
       <r>   -0.7518    1.0000 </r>
       <r>   -0.7167    1.0000 </r>
       <r>   -0.4321    1.0000 </r>
       <r>   -0.2460    1.0000 </r>
       <r>   -0.2459    1.0000 </r>
       <r>   -0.0890    1.0000 </r>
       <r>   -0.0703    1.0000 </r>
       <r>   -0.0703    1.0000 </r>
       <r>   -0.0338    1.0000 </r>
       <r>    0.0089    1.0000 </r>
       <r>    0.0089    1.0000 </r>
       <r>    0.0425    1.0000 </r>
       <r>    0.1203    1.0000 </r>
       <r>    0.1203    1.0000 </r>
       <r>    0.2740    1.0000 </r>
       <r>    0.4933    1.0000 </r>
       <r>    0.4933    1.0000 </r>
       <r>    0.5399    1.0000 </r>
       <r>    0.5844    1.0000 </r>
       <r>    0.5844    1.0000 </r>
       <r>    2.9169    0.0000 </r>
       <r>    3.5088    0.0000 </r>
       <r>    3.5088    0.0000 </r>
       <r>    4.6362    0.0000 </r>
       <r>    4.6477    0.0000 </r>
       <r>    4.6477    0.0000 </r>
       <r>    6.2156    0.0000 </r>
       <r>    6.2157    0.0000 </r>
       <r>    6.2514    0.0000 </r>
       <r>    6.5943    0.0000 </r>
       <r>    6.5943    0.0000 </r>
       <r>    6.6549    0.0000 </r>
       <r>    6.8790    0.0000 </r>
       <r>    6.8809    0.0000 </r>
       <r>    6.8809    0.0000 </r>
       <r>    7.0592    0.0000 </r>
       <r>    7.0592    0.0000 </r>
       <r>    7.2075    0.0000 </r>
       <r>    7.2416    0.0000 </r>
       <r>    7.2416    0.0000 </r>
       <r>    7.3128    0.0000 </r>
       <r>    7.4622    0.0000 </r>
       <r>    7.4623    0.0000 </r>
       <r>    7.5235    0.0000 </r>
       <r>    7.6670    0.0000 </r>
       <r>    7.7409    0.0000 </r>
       <r>    7.7409    0.0000 </r>
       <r>    7.8141    0.0000 </r>
       <r>    8.0914    0.0000 </r>
       <r>    8.0915    0.0000 </r>
       <r>    8.4180    0.0000 </r>
       <r>    8.7437    0.0000 </r>
       <r>    8.7437    0.0000 </r>
       <r>    8.7567    0.0000 </r>
       <r>    8.8138    0.0000 </r>
       <r>    8.8215    0.0000 </r>
       <r>    8.8215    0.0000 </r>
       <r>    8.9703    0.0000 </r>
       <r>    8.9703    0.0000 </r>
       <r>    9.1218    0.0000 </r>
       <r>    9.1219    0.0000 </r>
       <r>    9.1743    0.0000 </r>
       <r>    9.2465    0.0000 </r>
       <r>    9.2637    0.0000 </r>
       <r>    9.2637    0.0000 </r>
       <r>    9.4186    0.0000 </r>
      </set>
      <set comment="kpoint 4">
       <r>  -19.7976    1.0000 </r>
       <r>  -19.7926    1.0000 </r>
       <r>  -19.7921    1.0000 </r>
       <r>  -11.2328    1.0000 </r>
       <r>  -11.0779    1.0000 </r>
       <r>  -10.2766    1.0000 </r>
       <r>  -10.2727    1.0000 </r>
       <r>  -10.2726    1.0000 </r>
       <r>  -10.1738    1.0000 </r>
       <r>  -10.1738    1.0000 </r>
       <r>  -10.0662    1.0000 </r>
       <r>  -10.0661    1.0000 </r>
       <r>   -8.7823    1.0000 </r>
       <r>   -8.2537    1.0000 </r>
       <r>   -6.6065    1.0000 </r>
       <r>   -6.6060    1.0000 </r>
       <r>   -6.6060    1.0000 </r>
       <r>   -6.5849    1.0000 </r>
       <r>   -6.5849    1.0000 </r>
       <r>   -6.5848    1.0000 </r>
       <r>   -6.5848    1.0000 </r>
       <r>   -6.5735    1.0000 </r>
       <r>   -6.5688    1.0000 </r>
       <r>   -2.4442    1.0000 </r>
       <r>   -2.0997    1.0000 </r>
       <r>   -2.0997    1.0000 </r>
       <r>   -1.6154    1.0000 </r>
       <r>   -1.6153    1.0000 </r>
       <r>   -1.3526    1.0000 </r>
       <r>   -0.7672    1.0000 </r>
       <r>   -0.7472    1.0000 </r>
       <r>   -0.7472    1.0000 </r>
       <r>   -0.2623    1.0000 </r>
       <r>   -0.1157    1.0000 </r>
       <r>   -0.1157    1.0000 </r>
       <r>   -0.0968    1.0000 </r>
       <r>   -0.0968    1.0000 </r>
       <r>    0.0615    1.0000 </r>
       <r>    0.0615    1.0000 </r>
       <r>    0.1007    1.0000 </r>
       <r>    0.2234    1.0000 </r>
       <r>    0.3011    1.0000 </r>
       <r>    0.3363    1.0000 </r>
       <r>    0.3363    1.0000 </r>
       <r>    0.3424    1.0000 </r>
       <r>    0.4345    1.0000 </r>
       <r>    0.4345    1.0000 </r>
       <r>    0.7671    1.0000 </r>
       <r>    0.7712    1.0000 </r>
       <r>    0.7712    1.0000 </r>
       <r>    2.8405    0.0000 </r>
       <r>    3.0440    0.0000 </r>
       <r>    3.0440    0.0000 </r>
       <r>    4.2192    0.0000 </r>
       <r>    4.8166    0.0000 </r>
       <r>    4.8166    0.0000 </r>
       <r>    5.3733    0.0000 </r>
       <r>    5.4367    0.0000 </r>
       <r>    5.5145    0.0000 </r>
       <r>    6.0260    0.0000 </r>
       <r>    6.0260    0.0000 </r>
       <r>    6.0896    0.0000 </r>
       <r>    6.0896    0.0000 </r>
       <r>    6.4118    0.0000 </r>
       <r>    6.4800    0.0000 </r>
       <r>    6.4800    0.0000 </r>
       <r>    6.5734    0.0000 </r>
       <r>    6.5901    0.0000 </r>
       <r>    6.5901    0.0000 </r>
       <r>    6.6975    0.0000 </r>
       <r>    6.8838    0.0000 </r>
       <r>    6.8838    0.0000 </r>
       <r>    7.6988    0.0000 </r>
       <r>    7.6989    0.0000 </r>
       <r>    7.8233    0.0000 </r>
       <r>    8.3653    0.0000 </r>
       <r>    8.5500    0.0000 </r>
       <r>    8.5500    0.0000 </r>
       <r>    8.8897    0.0000 </r>
       <r>    8.9051    0.0000 </r>
       <r>    8.9051    0.0000 </r>
       <r>    9.0208    0.0000 </r>
       <r>    9.0455    0.0000 </r>
       <r>    9.0455    0.0000 </r>
       <r>    9.1313    0.0000 </r>
       <r>    9.3679    0.0000 </r>
       <r>    9.5794    0.0000 </r>
       <r>    9.5795    0.0000 </r>
       <r>    9.5887    0.0000 </r>
       <r>    9.5961    0.0000 </r>
       <r>    9.5961    0.0000 </r>
       <r>    9.6429    0.0000 </r>
       <r>    9.6429    0.0000 </r>
       <r>   10.3059    0.0000 </r>
       <r>   10.3064    0.0000 </r>
       <r>   10.5007    0.0000 </r>
      </set>
      <set comment="kpoint 5">
       <r>  -19.7976    1.0000 </r>
       <r>  -19.7925    1.0000 </r>
       <r>  -19.7922    1.0000 </r>
       <r>  -11.1774    1.0000 </r>
       <r>  -11.0777    1.0000 </r>
       <r>  -10.3551    1.0000 </r>
       <r>  -10.2575    1.0000 </r>
       <r>  -10.2561    1.0000 </r>
       <r>  -10.2216    1.0000 </r>
       <r>  -10.2096    1.0000 </r>
       <r>  -10.1106    1.0000 </r>
       <r>  -10.0500    1.0000 </r>
       <r>   -8.6118    1.0000 </r>
       <r>   -8.3156    1.0000 </r>
       <r>   -6.5964    1.0000 </r>
       <r>   -6.5944    1.0000 </r>
       <r>   -6.5835    1.0000 </r>
       <r>   -6.5831    1.0000 </r>
       <r>   -6.5801    1.0000 </r>
       <r>   -6.5799    1.0000 </r>
       <r>   -6.5783    1.0000 </r>
       <r>   -6.5703    1.0000 </r>
       <r>   -6.5654    1.0000 </r>
       <r>   -2.2735    1.0000 </r>
       <r>   -2.1857    1.0000 </r>
       <r>   -2.1428    1.0000 </r>
       <r>   -1.7213    1.0000 </r>
       <r>   -1.4051    1.0000 </r>
       <r>   -1.1912    1.0000 </r>
       <r>   -0.7695    1.0000 </r>
       <r>   -0.6156    1.0000 </r>
       <r>   -0.5854    1.0000 </r>
       <r>   -0.5469    1.0000 </r>
       <r>   -0.4212    1.0000 </r>
       <r>   -0.2221    1.0000 </r>
       <r>   -0.1791    1.0000 </r>
       <r>   -0.1422    1.0000 </r>
       <r>   -0.0172    1.0000 </r>
       <r>   -0.0149    1.0000 </r>
       <r>    0.1145    1.0000 </r>
       <r>    0.1384    1.0000 </r>
       <r>    0.1523    1.0000 </r>
       <r>    0.2215    1.0000 </r>
       <r>    0.2400    1.0000 </r>
       <r>    0.4198    1.0000 </r>
       <r>    0.4629    1.0000 </r>
       <r>    0.5051    1.0000 </r>
       <r>    0.5270    1.0000 </r>
       <r>    0.5472    1.0000 </r>
       <r>    0.6790    1.0000 </r>
       <r>    2.8594    0.0000 </r>
       <r>    3.4352    0.0000 </r>
       <r>    3.4385    0.0000 </r>
       <r>    4.4640    0.0000 </r>
       <r>    4.6093    0.0000 </r>
       <r>    4.6868    0.0000 </r>
       <r>    5.8846    0.0000 </r>
       <r>    5.9273    0.0000 </r>
       <r>    5.9656    0.0000 </r>
       <r>    6.3348    0.0000 </r>
       <r>    6.3720    0.0000 </r>
       <r>    6.4889    0.0000 </r>
       <r>    6.5492    0.0000 </r>
       <r>    6.6040    0.0000 </r>
       <r>    6.6305    0.0000 </r>
       <r>    6.6983    0.0000 </r>
       <r>    6.8021    0.0000 </r>
       <r>    6.9373    0.0000 </r>
       <r>    6.9763    0.0000 </r>
       <r>    7.1832    0.0000 </r>
       <r>    7.3364    0.0000 </r>
       <r>    7.3404    0.0000 </r>
       <r>    7.4567    0.0000 </r>
       <r>    7.5471    0.0000 </r>
       <r>    7.7553    0.0000 </r>
       <r>    7.8924    0.0000 </r>
       <r>    8.0611    0.0000 </r>
       <r>    8.2284    0.0000 </r>
       <r>    8.5341    0.0000 </r>
       <r>    8.5419    0.0000 </r>
       <r>    8.6096    0.0000 </r>
       <r>    8.6858    0.0000 </r>
       <r>    8.7155    0.0000 </r>
       <r>    8.8128    0.0000 </r>
       <r>    8.8197    0.0000 </r>
       <r>    9.0609    0.0000 </r>
       <r>    9.1480    0.0000 </r>
       <r>    9.1527    0.0000 </r>
       <r>    9.2642    0.0000 </r>
       <r>    9.2718    0.0000 </r>
       <r>    9.4422    0.0000 </r>
       <r>    9.4803    0.0000 </r>
       <r>    9.6116    0.0000 </r>
       <r>    9.6161    0.0000 </r>
       <r>    9.6711    0.0000 </r>
       <r>    9.9651    0.0000 </r>
      </set>
      <set comment="kpoint 6">
       <r>  -19.7975    1.0000 </r>
       <r>  -19.7923    1.0000 </r>
       <r>  -19.7923    1.0000 </r>
       <r>  -11.1130    1.0000 </r>
       <r>  -11.1130    1.0000 </r>
       <r>  -10.3698    1.0000 </r>
       <r>  -10.2787    1.0000 </r>
       <r>  -10.2757    1.0000 </r>
       <r>  -10.2757    1.0000 </r>
       <r>  -10.1373    1.0000 </r>
       <r>  -10.1372    1.0000 </r>
       <r>  -10.0625    1.0000 </r>
       <r>   -8.4386    1.0000 </r>
       <r>   -8.4386    1.0000 </r>
       <r>   -6.5866    1.0000 </r>
       <r>   -6.5853    1.0000 </r>
       <r>   -6.5853    1.0000 </r>
       <r>   -6.5759    1.0000 </r>
       <r>   -6.5747    1.0000 </r>
       <r>   -6.5747    1.0000 </r>
       <r>   -6.5739    1.0000 </r>
       <r>   -6.5703    1.0000 </r>
       <r>   -6.5703    1.0000 </r>
       <r>   -2.3394    1.0000 </r>
       <r>   -2.1032    1.0000 </r>
       <r>   -2.1032    1.0000 </r>
       <r>   -1.5377    1.0000 </r>
       <r>   -1.3704    1.0000 </r>
       <r>   -1.3704    1.0000 </r>
       <r>   -0.6333    1.0000 </r>
       <r>   -0.6333    1.0000 </r>
       <r>   -0.6271    1.0000 </r>
       <r>   -0.5369    1.0000 </r>
       <r>   -0.4207    1.0000 </r>
       <r>   -0.4077    1.0000 </r>
       <r>   -0.4077    1.0000 </r>
       <r>   -0.1090    1.0000 </r>
       <r>   -0.1090    1.0000 </r>
       <r>    0.0228    1.0000 </r>
       <r>    0.1344    1.0000 </r>
       <r>    0.2062    1.0000 </r>
       <r>    0.2062    1.0000 </r>
       <r>    0.2806    1.0000 </r>
       <r>    0.2807    1.0000 </r>
       <r>    0.3296    1.0000 </r>
       <r>    0.3812    1.0000 </r>
       <r>    0.3812    1.0000 </r>
       <r>    0.4019    1.0000 </r>
       <r>    0.5350    1.0000 </r>
       <r>    0.5350    1.0000 </r>
       <r>    3.3802    0.0000 </r>
       <r>    3.3802    0.0000 </r>
       <r>    3.4592    0.0000 </r>
       <r>    4.0923    0.0000 </r>
       <r>    4.7688    0.0000 </r>
       <r>    4.7688    0.0000 </r>
       <r>    6.2758    0.0000 </r>
       <r>    6.2758    0.0000 </r>
       <r>    6.2919    0.0000 </r>
       <r>    6.5369    0.0000 </r>
       <r>    6.5370    0.0000 </r>
       <r>    6.5670    0.0000 </r>
       <r>    6.8743    0.0000 </r>
       <r>    6.8744    0.0000 </r>
       <r>    6.9827    0.0000 </r>
       <r>    7.1033    0.0000 </r>
       <r>    7.1033    0.0000 </r>
       <r>    7.2571    0.0000 </r>
       <r>    7.3026    0.0000 </r>
       <r>    7.3030    0.0000 </r>
       <r>    7.3030    0.0000 </r>
       <r>    7.4032    0.0000 </r>
       <r>    7.4235    0.0000 </r>
       <r>    7.4235    0.0000 </r>
       <r>    7.6039    0.0000 </r>
       <r>    7.6885    0.0000 </r>
       <r>    7.6886    0.0000 </r>
       <r>    8.1122    0.0000 </r>
       <r>    8.1122    0.0000 </r>
       <r>    8.1147    0.0000 </r>
       <r>    8.2858    0.0000 </r>
       <r>    8.4243    0.0000 </r>
       <r>    8.4243    0.0000 </r>
       <r>    8.6211    0.0000 </r>
       <r>    8.6559    0.0000 </r>
       <r>    8.6559    0.0000 </r>
       <r>    8.7847    0.0000 </r>
       <r>    8.7847    0.0000 </r>
       <r>    8.8645    0.0000 </r>
       <r>    9.3352    0.0000 </r>
       <r>    9.3965    0.0000 </r>
       <r>    9.4662    0.0000 </r>
       <r>    9.4662    0.0000 </r>
       <r>    9.7511    0.0000 </r>
       <r>   10.0404    0.0000 </r>
       <r>   10.0406    0.0000 </r>
      </set>
     </set>
     <set comment="spin 2">
      <set comment="kpoint 1">
       <r>  -19.7976    1.0000 </r>
       <r>  -19.7925    1.0000 </r>
       <r>  -19.7921    1.0000 </r>
       <r>  -11.2701    1.0000 </r>
       <r>  -11.0111    1.0000 </r>
       <r>  -10.3291    1.0000 </r>
       <r>  -10.2348    1.0000 </r>
       <r>  -10.2347    1.0000 </r>
       <r>  -10.2294    1.0000 </r>
       <r>  -10.2294    1.0000 </r>
       <r>  -10.0481    1.0000 </r>
       <r>  -10.0480    1.0000 </r>
       <r>   -8.6966    1.0000 </r>
       <r>   -8.3200    1.0000 </r>
       <r>   -6.5974    1.0000 </r>
       <r>   -6.5974    1.0000 </r>
       <r>   -6.5934    1.0000 </r>
       <r>   -6.5934    1.0000 </r>
       <r>   -6.5858    1.0000 </r>
       <r>   -6.5855    1.0000 </r>
       <r>   -6.5855    1.0000 </r>
       <r>   -6.5845    1.0000 </r>
       <r>   -6.5770    1.0000 </r>
       <r>   -2.3571    1.0000 </r>
       <r>   -2.2451    1.0000 </r>
       <r>   -2.2451    1.0000 </r>
       <r>   -1.4661    1.0000 </r>
       <r>   -1.2915    1.0000 </r>
       <r>   -1.2914    1.0000 </r>
       <r>   -0.7660    1.0000 </r>
       <r>   -0.5965    1.0000 </r>
       <r>   -0.5965    1.0000 </r>
       <r>   -0.5560    1.0000 </r>
       <r>   -0.5191    1.0000 </r>
       <r>   -0.5190    1.0000 </r>
       <r>   -0.1788    1.0000 </r>
       <r>   -0.1788    1.0000 </r>
       <r>    0.1561    1.0000 </r>
       <r>    0.1633    1.0000 </r>
       <r>    0.1633    1.0000 </r>
       <r>    0.1921    1.0000 </r>
       <r>    0.3255    1.0000 </r>
       <r>    0.3255    1.0000 </r>
       <r>    0.5310    1.0000 </r>
       <r>    0.5310    1.0000 </r>
       <r>    0.5859    1.0000 </r>
       <r>    0.6219    1.0000 </r>
       <r>    0.6219    1.0000 </r>
       <r>    0.6291    1.0000 </r>
       <r>    0.6442    1.0000 </r>
       <r>    2.6059    0.0000 </r>
       <r>    3.4973    0.0000 </r>
       <r>    3.4973    0.0000 </r>
       <r>    4.3424    0.0000 </r>
       <r>    4.4396    0.0000 </r>
       <r>    4.4396    0.0000 </r>
       <r>    4.6957    0.0000 </r>
       <r>    5.6167    0.0000 </r>
       <r>    5.6167    0.0000 </r>
       <r>    5.8423    0.0000 </r>
       <r>    5.9318    0.0000 </r>
       <r>    6.0463    0.0000 </r>
       <r>    6.0463    0.0000 </r>
       <r>    6.0828    0.0000 </r>
       <r>    6.6677    0.0000 </r>
       <r>    6.6678    0.0000 </r>
       <r>    6.6735    0.0000 </r>
       <r>    6.6735    0.0000 </r>
       <r>    6.8378    0.0000 </r>
       <r>    6.8448    0.0000 </r>
       <r>    7.5757    0.0000 </r>
       <r>    7.5757    0.0000 </r>
       <r>    7.5934    0.0000 </r>
       <r>    7.5935    0.0000 </r>
       <r>    8.2401    0.0000 </r>
       <r>    8.2870    0.0000 </r>
       <r>    8.4066    0.0000 </r>
       <r>    8.4066    0.0000 </r>
       <r>    8.4412    0.0000 </r>
       <r>    8.7543    0.0000 </r>
       <r>    8.8085    0.0000 </r>
       <r>    8.8085    0.0000 </r>
       <r>    8.8406    0.0000 </r>
       <r>    8.8406    0.0000 </r>
       <r>    9.0131    0.0000 </r>
       <r>    9.0131    0.0000 </r>
       <r>    9.2272    0.0000 </r>
       <r>    9.2272    0.0000 </r>
       <r>    9.3057    0.0000 </r>
       <r>    9.6917    0.0000 </r>
       <r>    9.7196    0.0000 </r>
       <r>    9.9677    0.0000 </r>
       <r>   10.3434    0.0000 </r>
       <r>   10.3437    0.0000 </r>
       <r>   10.5333    0.0000 </r>
       <r>   10.6707    0.0000 </r>
      </set>
      <set comment="kpoint 2">
       <r>  -19.7975    1.0000 </r>
       <r>  -19.7925    1.0000 </r>
       <r>  -19.7922    1.0000 </r>
       <r>  -11.2012    1.0000 </r>
       <r>  -11.0439    1.0000 </r>
       <r>  -10.3345    1.0000 </r>
       <r>  -10.2747    1.0000 </r>
       <r>  -10.2725    1.0000 </r>
       <r>  -10.2400    1.0000 </r>
       <r>  -10.1814    1.0000 </r>
       <r>  -10.1189    1.0000 </r>
       <r>  -10.0596    1.0000 </r>
       <r>   -8.5630    1.0000 </r>
       <r>   -8.3530    1.0000 </r>
       <r>   -6.5900    1.0000 </r>
       <r>   -6.5867    1.0000 </r>
       <r>   -6.5855    1.0000 </r>
       <r>   -6.5831    1.0000 </r>
       <r>   -6.5830    1.0000 </r>
       <r>   -6.5817    1.0000 </r>
       <r>   -6.5760    1.0000 </r>
       <r>   -6.5738    1.0000 </r>
       <r>   -6.5713    1.0000 </r>
       <r>   -2.3589    1.0000 </r>
       <r>   -2.1275    1.0000 </r>
       <r>   -2.1169    1.0000 </r>
       <r>   -1.5834    1.0000 </r>
       <r>   -1.4552    1.0000 </r>
       <r>   -1.2672    1.0000 </r>
       <r>   -0.8773    1.0000 </r>
       <r>   -0.6831    1.0000 </r>
       <r>   -0.5100    1.0000 </r>
       <r>   -0.4516    1.0000 </r>
       <r>   -0.3647    1.0000 </r>
       <r>   -0.3564    1.0000 </r>
       <r>   -0.1747    1.0000 </r>
       <r>   -0.0871    1.0000 </r>
       <r>   -0.0100    1.0000 </r>
       <r>   -0.0006    1.0000 </r>
       <r>    0.0637    1.0000 </r>
       <r>    0.1724    1.0000 </r>
       <r>    0.2083    1.0000 </r>
       <r>    0.2588    1.0000 </r>
       <r>    0.3123    1.0000 </r>
       <r>    0.3189    1.0000 </r>
       <r>    0.3633    1.0000 </r>
       <r>    0.4259    1.0000 </r>
       <r>    0.4919    1.0000 </r>
       <r>    0.6296    1.0000 </r>
       <r>    0.7307    1.0000 </r>
       <r>    3.1106    0.0000 </r>
       <r>    3.3290    0.0000 </r>
       <r>    3.3894    0.0000 </r>
       <r>    4.2395    0.0000 </r>
       <r>    4.7282    0.0000 </r>
       <r>    4.7467    0.0000 </r>
       <r>    5.3630    0.0000 </r>
       <r>    6.0194    0.0000 </r>
       <r>    6.0453    0.0000 </r>
       <r>    6.1569    0.0000 </r>
       <r>    6.3956    0.0000 </r>
       <r>    6.4870    0.0000 </r>
       <r>    6.6411    0.0000 </r>
       <r>    6.6733    0.0000 </r>
       <r>    6.7250    0.0000 </r>
       <r>    6.8048    0.0000 </r>
       <r>    6.8761    0.0000 </r>
       <r>    7.0339    0.0000 </r>
       <r>    7.1251    0.0000 </r>
       <r>    7.2050    0.0000 </r>
       <r>    7.3232    0.0000 </r>
       <r>    7.4137    0.0000 </r>
       <r>    7.5675    0.0000 </r>
       <r>    7.8418    0.0000 </r>
       <r>    7.9245    0.0000 </r>
       <r>    7.9898    0.0000 </r>
       <r>    8.0927    0.0000 </r>
       <r>    8.3366    0.0000 </r>
       <r>    8.3803    0.0000 </r>
       <r>    8.3803    0.0000 </r>
       <r>    8.4986    0.0000 </r>
       <r>    8.5483    0.0000 </r>
       <r>    8.6173    0.0000 </r>
       <r>    8.6681    0.0000 </r>
       <r>    8.7535    0.0000 </r>
       <r>    8.7574    0.0000 </r>
       <r>    8.9130    0.0000 </r>
       <r>    8.9265    0.0000 </r>
       <r>    9.1712    0.0000 </r>
       <r>    9.2865    0.0000 </r>
       <r>    9.3168    0.0000 </r>
       <r>    9.7009    0.0000 </r>
       <r>    9.7506    0.0000 </r>
       <r>    9.8145    0.0000 </r>
       <r>    9.9996    0.0000 </r>
       <r>   10.1372    0.0000 </r>
      </set>
      <set comment="kpoint 3">
       <r>  -19.7975    1.0000 </r>
       <r>  -19.7923    1.0000 </r>
       <r>  -19.7923    1.0000 </r>
       <r>  -11.1134    1.0000 </r>
       <r>  -11.1133    1.0000 </r>
       <r>  -10.3912    1.0000 </r>
       <r>  -10.2453    1.0000 </r>
       <r>  -10.2453    1.0000 </r>
       <r>  -10.2386    1.0000 </r>
       <r>  -10.1705    1.0000 </r>
       <r>  -10.1705    1.0000 </r>
       <r>  -10.0817    1.0000 </r>
       <r>   -8.4342    1.0000 </r>
       <r>   -8.4342    1.0000 </r>
       <r>   -6.5866    1.0000 </r>
       <r>   -6.5817    1.0000 </r>
       <r>   -6.5817    1.0000 </r>
       <r>   -6.5765    1.0000 </r>
       <r>   -6.5756    1.0000 </r>
       <r>   -6.5756    1.0000 </r>
       <r>   -6.5731    1.0000 </r>
       <r>   -6.5731    1.0000 </r>
       <r>   -6.5729    1.0000 </r>
       <r>   -2.1520    1.0000 </r>
       <r>   -2.1520    1.0000 </r>
       <r>   -2.1104    1.0000 </r>
       <r>   -1.9298    1.0000 </r>
       <r>   -1.2365    1.0000 </r>
       <r>   -1.2365    1.0000 </r>
       <r>   -0.7518    1.0000 </r>
       <r>   -0.7518    1.0000 </r>
       <r>   -0.7167    1.0000 </r>
       <r>   -0.4321    1.0000 </r>
       <r>   -0.2459    1.0000 </r>
       <r>   -0.2459    1.0000 </r>
       <r>   -0.0890    1.0000 </r>
       <r>   -0.0703    1.0000 </r>
       <r>   -0.0702    1.0000 </r>
       <r>   -0.0338    1.0000 </r>
       <r>    0.0089    1.0000 </r>
       <r>    0.0089    1.0000 </r>
       <r>    0.0425    1.0000 </r>
       <r>    0.1203    1.0000 </r>
       <r>    0.1203    1.0000 </r>
       <r>    0.2740    1.0000 </r>
       <r>    0.4934    1.0000 </r>
       <r>    0.4934    1.0000 </r>
       <r>    0.5399    1.0000 </r>
       <r>    0.5844    1.0000 </r>
       <r>    0.5844    1.0000 </r>
       <r>    2.9169    0.0000 </r>
       <r>    3.5088    0.0000 </r>
       <r>    3.5088    0.0000 </r>
       <r>    4.6362    0.0000 </r>
       <r>    4.6477    0.0000 </r>
       <r>    4.6477    0.0000 </r>
       <r>    6.2156    0.0000 </r>
       <r>    6.2157    0.0000 </r>
       <r>    6.2514    0.0000 </r>
       <r>    6.5943    0.0000 </r>
       <r>    6.5944    0.0000 </r>
       <r>    6.6549    0.0000 </r>
       <r>    6.8790    0.0000 </r>
       <r>    6.8809    0.0000 </r>
       <r>    6.8809    0.0000 </r>
       <r>    7.0592    0.0000 </r>
       <r>    7.0593    0.0000 </r>
       <r>    7.2075    0.0000 </r>
       <r>    7.2416    0.0000 </r>
       <r>    7.2417    0.0000 </r>
       <r>    7.3128    0.0000 </r>
       <r>    7.4623    0.0000 </r>
       <r>    7.4623    0.0000 </r>
       <r>    7.5236    0.0000 </r>
       <r>    7.6670    0.0000 </r>
       <r>    7.7409    0.0000 </r>
       <r>    7.7409    0.0000 </r>
       <r>    7.8141    0.0000 </r>
       <r>    8.0914    0.0000 </r>
       <r>    8.0915    0.0000 </r>
       <r>    8.4180    0.0000 </r>
       <r>    8.7437    0.0000 </r>
       <r>    8.7437    0.0000 </r>
       <r>    8.7567    0.0000 </r>
       <r>    8.8139    0.0000 </r>
       <r>    8.8215    0.0000 </r>
       <r>    8.8215    0.0000 </r>
       <r>    8.9703    0.0000 </r>
       <r>    8.9704    0.0000 </r>
       <r>    9.1218    0.0000 </r>
       <r>    9.1219    0.0000 </r>
       <r>    9.1743    0.0000 </r>
       <r>    9.2465    0.0000 </r>
       <r>    9.2637    0.0000 </r>
       <r>    9.2637    0.0000 </r>
       <r>    9.4187    0.0000 </r>
      </set>
      <set comment="kpoint 4">
       <r>  -19.7976    1.0000 </r>
       <r>  -19.7926    1.0000 </r>
       <r>  -19.7921    1.0000 </r>
       <r>  -11.2328    1.0000 </r>
       <r>  -11.0779    1.0000 </r>
       <r>  -10.2766    1.0000 </r>
       <r>  -10.2726    1.0000 </r>
       <r>  -10.2726    1.0000 </r>
       <r>  -10.1738    1.0000 </r>
       <r>  -10.1738    1.0000 </r>
       <r>  -10.0662    1.0000 </r>
       <r>  -10.0661    1.0000 </r>
       <r>   -8.7823    1.0000 </r>
       <r>   -8.2537    1.0000 </r>
       <r>   -6.6065    1.0000 </r>
       <r>   -6.6060    1.0000 </r>
       <r>   -6.6060    1.0000 </r>
       <r>   -6.5849    1.0000 </r>
       <r>   -6.5849    1.0000 </r>
       <r>   -6.5848    1.0000 </r>
       <r>   -6.5848    1.0000 </r>
       <r>   -6.5735    1.0000 </r>
       <r>   -6.5688    1.0000 </r>
       <r>   -2.4441    1.0000 </r>
       <r>   -2.0997    1.0000 </r>
       <r>   -2.0997    1.0000 </r>
       <r>   -1.6153    1.0000 </r>
       <r>   -1.6153    1.0000 </r>
       <r>   -1.3526    1.0000 </r>
       <r>   -0.7672    1.0000 </r>
       <r>   -0.7472    1.0000 </r>
       <r>   -0.7472    1.0000 </r>
       <r>   -0.2623    1.0000 </r>
       <r>   -0.1156    1.0000 </r>
       <r>   -0.1156    1.0000 </r>
       <r>   -0.0968    1.0000 </r>
       <r>   -0.0968    1.0000 </r>
       <r>    0.0615    1.0000 </r>
       <r>    0.0615    1.0000 </r>
       <r>    0.1008    1.0000 </r>
       <r>    0.2234    1.0000 </r>
       <r>    0.3011    1.0000 </r>
       <r>    0.3363    1.0000 </r>
       <r>    0.3363    1.0000 </r>
       <r>    0.3424    1.0000 </r>
       <r>    0.4345    1.0000 </r>
       <r>    0.4345    1.0000 </r>
       <r>    0.7671    1.0000 </r>
       <r>    0.7712    1.0000 </r>
       <r>    0.7712    1.0000 </r>
       <r>    2.8405    0.0000 </r>
       <r>    3.0440    0.0000 </r>
       <r>    3.0440    0.0000 </r>
       <r>    4.2193    0.0000 </r>
       <r>    4.8166    0.0000 </r>
       <r>    4.8166    0.0000 </r>
       <r>    5.3733    0.0000 </r>
       <r>    5.4367    0.0000 </r>
       <r>    5.5145    0.0000 </r>
       <r>    6.0260    0.0000 </r>
       <r>    6.0260    0.0000 </r>
       <r>    6.0896    0.0000 </r>
       <r>    6.0896    0.0000 </r>
       <r>    6.4118    0.0000 </r>
       <r>    6.4801    0.0000 </r>
       <r>    6.4801    0.0000 </r>
       <r>    6.5734    0.0000 </r>
       <r>    6.5901    0.0000 </r>
       <r>    6.5902    0.0000 </r>
       <r>    6.6975    0.0000 </r>
       <r>    6.8838    0.0000 </r>
       <r>    6.8838    0.0000 </r>
       <r>    7.6989    0.0000 </r>
       <r>    7.6989    0.0000 </r>
       <r>    7.8233    0.0000 </r>
       <r>    8.3654    0.0000 </r>
       <r>    8.5500    0.0000 </r>
       <r>    8.5500    0.0000 </r>
       <r>    8.8897    0.0000 </r>
       <r>    8.9051    0.0000 </r>
       <r>    8.9051    0.0000 </r>
       <r>    9.0209    0.0000 </r>
       <r>    9.0455    0.0000 </r>
       <r>    9.0455    0.0000 </r>
       <r>    9.1313    0.0000 </r>
       <r>    9.3680    0.0000 </r>
       <r>    9.5795    0.0000 </r>
       <r>    9.5795    0.0000 </r>
       <r>    9.5887    0.0000 </r>
       <r>    9.5962    0.0000 </r>
       <r>    9.5962    0.0000 </r>
       <r>    9.6429    0.0000 </r>
       <r>    9.6429    0.0000 </r>
       <r>   10.3059    0.0000 </r>
       <r>   10.3061    0.0000 </r>
       <r>   10.4322    0.0000 </r>
      </set>
      <set comment="kpoint 5">
       <r>  -19.7975    1.0000 </r>
       <r>  -19.7925    1.0000 </r>
       <r>  -19.7922    1.0000 </r>
       <r>  -11.1773    1.0000 </r>
       <r>  -11.0777    1.0000 </r>
       <r>  -10.3551    1.0000 </r>
       <r>  -10.2575    1.0000 </r>
       <r>  -10.2561    1.0000 </r>
       <r>  -10.2216    1.0000 </r>
       <r>  -10.2096    1.0000 </r>
       <r>  -10.1105    1.0000 </r>
       <r>  -10.0500    1.0000 </r>
       <r>   -8.6117    1.0000 </r>
       <r>   -8.3156    1.0000 </r>
       <r>   -6.5964    1.0000 </r>
       <r>   -6.5944    1.0000 </r>
       <r>   -6.5835    1.0000 </r>
       <r>   -6.5831    1.0000 </r>
       <r>   -6.5801    1.0000 </r>
       <r>   -6.5799    1.0000 </r>
       <r>   -6.5783    1.0000 </r>
       <r>   -6.5703    1.0000 </r>
       <r>   -6.5654    1.0000 </r>
       <r>   -2.2735    1.0000 </r>
       <r>   -2.1857    1.0000 </r>
       <r>   -2.1428    1.0000 </r>
       <r>   -1.7212    1.0000 </r>
       <r>   -1.4051    1.0000 </r>
       <r>   -1.1912    1.0000 </r>
       <r>   -0.7695    1.0000 </r>
       <r>   -0.6156    1.0000 </r>
       <r>   -0.5854    1.0000 </r>
       <r>   -0.5469    1.0000 </r>
       <r>   -0.4212    1.0000 </r>
       <r>   -0.2220    1.0000 </r>
       <r>   -0.1791    1.0000 </r>
       <r>   -0.1422    1.0000 </r>
       <r>   -0.0172    1.0000 </r>
       <r>   -0.0149    1.0000 </r>
       <r>    0.1145    1.0000 </r>
       <r>    0.1385    1.0000 </r>
       <r>    0.1523    1.0000 </r>
       <r>    0.2215    1.0000 </r>
       <r>    0.2400    1.0000 </r>
       <r>    0.4198    1.0000 </r>
       <r>    0.4630    1.0000 </r>
       <r>    0.5051    1.0000 </r>
       <r>    0.5270    1.0000 </r>
       <r>    0.5472    1.0000 </r>
       <r>    0.6790    1.0000 </r>
       <r>    2.8595    0.0000 </r>
       <r>    3.4353    0.0000 </r>
       <r>    3.4385    0.0000 </r>
       <r>    4.4641    0.0000 </r>
       <r>    4.6093    0.0000 </r>
       <r>    4.6868    0.0000 </r>
       <r>    5.8846    0.0000 </r>
       <r>    5.9273    0.0000 </r>
       <r>    5.9657    0.0000 </r>
       <r>    6.3348    0.0000 </r>
       <r>    6.3721    0.0000 </r>
       <r>    6.4889    0.0000 </r>
       <r>    6.5492    0.0000 </r>
       <r>    6.6040    0.0000 </r>
       <r>    6.6305    0.0000 </r>
       <r>    6.6983    0.0000 </r>
       <r>    6.8021    0.0000 </r>
       <r>    6.9374    0.0000 </r>
       <r>    6.9763    0.0000 </r>
       <r>    7.1832    0.0000 </r>
       <r>    7.3364    0.0000 </r>
       <r>    7.3405    0.0000 </r>
       <r>    7.4568    0.0000 </r>
       <r>    7.5471    0.0000 </r>
       <r>    7.7553    0.0000 </r>
       <r>    7.8924    0.0000 </r>
       <r>    8.0611    0.0000 </r>
       <r>    8.2285    0.0000 </r>
       <r>    8.5341    0.0000 </r>
       <r>    8.5420    0.0000 </r>
       <r>    8.6096    0.0000 </r>
       <r>    8.6859    0.0000 </r>
       <r>    8.7155    0.0000 </r>
       <r>    8.8128    0.0000 </r>
       <r>    8.8197    0.0000 </r>
       <r>    9.0609    0.0000 </r>
       <r>    9.1481    0.0000 </r>
       <r>    9.1527    0.0000 </r>
       <r>    9.2642    0.0000 </r>
       <r>    9.2718    0.0000 </r>
       <r>    9.4422    0.0000 </r>
       <r>    9.4803    0.0000 </r>
       <r>    9.6116    0.0000 </r>
       <r>    9.6161    0.0000 </r>
       <r>    9.6711    0.0000 </r>
       <r>    9.9651    0.0000 </r>
      </set>
      <set comment="kpoint 6">
       <r>  -19.7975    1.0000 </r>
       <r>  -19.7923    1.0000 </r>
       <r>  -19.7923    1.0000 </r>
       <r>  -11.1130    1.0000 </r>
       <r>  -11.1130    1.0000 </r>
       <r>  -10.3698    1.0000 </r>
       <r>  -10.2787    1.0000 </r>
       <r>  -10.2757    1.0000 </r>
       <r>  -10.2757    1.0000 </r>
       <r>  -10.1373    1.0000 </r>
       <r>  -10.1372    1.0000 </r>
       <r>  -10.0625    1.0000 </r>
       <r>   -8.4386    1.0000 </r>
       <r>   -8.4386    1.0000 </r>
       <r>   -6.5866    1.0000 </r>
       <r>   -6.5853    1.0000 </r>
       <r>   -6.5853    1.0000 </r>
       <r>   -6.5759    1.0000 </r>
       <r>   -6.5747    1.0000 </r>
       <r>   -6.5747    1.0000 </r>
       <r>   -6.5739    1.0000 </r>
       <r>   -6.5703    1.0000 </r>
       <r>   -6.5703    1.0000 </r>
       <r>   -2.3394    1.0000 </r>
       <r>   -2.1032    1.0000 </r>
       <r>   -2.1031    1.0000 </r>
       <r>   -1.5377    1.0000 </r>
       <r>   -1.3704    1.0000 </r>
       <r>   -1.3704    1.0000 </r>
       <r>   -0.6333    1.0000 </r>
       <r>   -0.6333    1.0000 </r>
       <r>   -0.6270    1.0000 </r>
       <r>   -0.5369    1.0000 </r>
       <r>   -0.4207    1.0000 </r>
       <r>   -0.4077    1.0000 </r>
       <r>   -0.4077    1.0000 </r>
       <r>   -0.1090    1.0000 </r>
       <r>   -0.1090    1.0000 </r>
       <r>    0.0228    1.0000 </r>
       <r>    0.1344    1.0000 </r>
       <r>    0.2062    1.0000 </r>
       <r>    0.2062    1.0000 </r>
       <r>    0.2807    1.0000 </r>
       <r>    0.2807    1.0000 </r>
       <r>    0.3296    1.0000 </r>
       <r>    0.3812    1.0000 </r>
       <r>    0.3812    1.0000 </r>
       <r>    0.4019    1.0000 </r>
       <r>    0.5350    1.0000 </r>
       <r>    0.5350    1.0000 </r>
       <r>    3.3802    0.0000 </r>
       <r>    3.3802    0.0000 </r>
       <r>    3.4592    0.0000 </r>
       <r>    4.0923    0.0000 </r>
       <r>    4.7688    0.0000 </r>
       <r>    4.7688    0.0000 </r>
       <r>    6.2758    0.0000 </r>
       <r>    6.2759    0.0000 </r>
       <r>    6.2919    0.0000 </r>
       <r>    6.5370    0.0000 </r>
       <r>    6.5370    0.0000 </r>
       <r>    6.5671    0.0000 </r>
       <r>    6.8743    0.0000 </r>
       <r>    6.8744    0.0000 </r>
       <r>    6.9827    0.0000 </r>
       <r>    7.1033    0.0000 </r>
       <r>    7.1033    0.0000 </r>
       <r>    7.2572    0.0000 </r>
       <r>    7.3026    0.0000 </r>
       <r>    7.3030    0.0000 </r>
       <r>    7.3030    0.0000 </r>
       <r>    7.4032    0.0000 </r>
       <r>    7.4235    0.0000 </r>
       <r>    7.4235    0.0000 </r>
       <r>    7.6039    0.0000 </r>
       <r>    7.6886    0.0000 </r>
       <r>    7.6886    0.0000 </r>
       <r>    8.1122    0.0000 </r>
       <r>    8.1123    0.0000 </r>
       <r>    8.1147    0.0000 </r>
       <r>    8.2858    0.0000 </r>
       <r>    8.4243    0.0000 </r>
       <r>    8.4243    0.0000 </r>
       <r>    8.6211    0.0000 </r>
       <r>    8.6559    0.0000 </r>
       <r>    8.6559    0.0000 </r>
       <r>    8.7847    0.0000 </r>
       <r>    8.7847    0.0000 </r>
       <r>    8.8645    0.0000 </r>
       <r>    9.3352    0.0000 </r>
       <r>    9.3965    0.0000 </r>
       <r>    9.4662    0.0000 </r>
       <r>    9.4662    0.0000 </r>
       <r>    9.7511    0.0000 </r>
       <r>   10.0404    0.0000 </r>
       <r>   10.0404    0.0000 </r>
      </set>
     </set>
    </set>
   </array>
  </eigenvalues>
  <separator name="orbital magnetization" >
   <v name="MAGDIPOLOUT">      0.00000000      0.00000000      0.00000000</v>
  </separator>
  <dos>
   <i name="efermi">      1.69961588 </i>
   <total>
    <array>
     <dimension dim="1">gridpoints</dimension>
     <dimension dim="2">spin</dimension>
     <field>energy</field>
     <field>total</field>
     <field>integrated</field>
     <set>
      <set comment="spin 1">
       <r>   -21.7976     0.0000     0.0000 </r>
       <r>   -21.6827     0.0000     0.0000 </r>
       <r>   -21.5678     0.0000     0.0000 </r>
       <r>   -21.4529     0.0000     0.0000 </r>
       <r>   -21.3380     0.0000     0.0000 </r>
       <r>   -21.2231     0.0000     0.0000 </r>
       <r>   -21.1082     0.0000     0.0000 </r>
       <r>   -20.9933     0.0000     0.0000 </r>
       <r>   -20.8784     0.0000     0.0000 </r>
       <r>   -20.7635     0.0000     0.0000 </r>
       <r>   -20.6487     0.0000     0.0000 </r>
       <r>   -20.5338     0.0000     0.0000 </r>
       <r>   -20.4189     0.0001     0.0000 </r>
       <r>   -20.3040     0.0039     0.0005 </r>
       <r>   -20.1891     0.0642     0.0078 </r>
       <r>   -20.0742     0.5540     0.0715 </r>
       <r>   -19.9593     2.5475     0.3642 </r>
       <r>   -19.8444     6.2568     1.0831 </r>
       <r>   -19.7295     8.2247     2.0280 </r>
       <r>   -19.6146     5.7900     2.6933 </r>
       <r>   -19.4997     2.1812     2.9439 </r>
       <r>   -19.3848     0.4388     2.9943 </r>
       <r>   -19.2699     0.0470     2.9997 </r>
       <r>   -19.1550     0.0027     3.0000 </r>
       <r>   -19.0401     0.0001     3.0000 </r>
       <r>   -18.9252     0.0000     3.0000 </r>
       <r>   -18.8103     0.0000     3.0000 </r>
       <r>   -18.6955     0.0000     3.0000 </r>
       <r>   -18.5806     0.0000     3.0000 </r>
       <r>   -18.4657     0.0000     3.0000 </r>
       <r>   -18.3508     0.0000     3.0000 </r>
       <r>   -18.2359     0.0000     3.0000 </r>
       <r>   -18.1210     0.0000     3.0000 </r>
       <r>   -18.0061     0.0000     3.0000 </r>
       <r>   -17.8912     0.0000     3.0000 </r>
       <r>   -17.7763     0.0000     3.0000 </r>
       <r>   -17.6614     0.0000     3.0000 </r>
       <r>   -17.5465     0.0000     3.0000 </r>
       <r>   -17.4316     0.0000     3.0000 </r>
       <r>   -17.3167     0.0000     3.0000 </r>
       <r>   -17.2018     0.0000     3.0000 </r>
       <r>   -17.0869     0.0000     3.0000 </r>
       <r>   -16.9720     0.0000     3.0000 </r>
       <r>   -16.8571     0.0000     3.0000 </r>
       <r>   -16.7423     0.0000     3.0000 </r>
       <r>   -16.6274     0.0000     3.0000 </r>
       <r>   -16.5125     0.0000     3.0000 </r>
       <r>   -16.3976     0.0000     3.0000 </r>
       <r>   -16.2827     0.0000     3.0000 </r>
       <r>   -16.1678     0.0000     3.0000 </r>
       <r>   -16.0529     0.0000     3.0000 </r>
       <r>   -15.9380     0.0000     3.0000 </r>
       <r>   -15.8231     0.0000     3.0000 </r>
       <r>   -15.7082     0.0000     3.0000 </r>
       <r>   -15.5933     0.0000     3.0000 </r>
       <r>   -15.4784     0.0000     3.0000 </r>
       <r>   -15.3635     0.0000     3.0000 </r>
       <r>   -15.2486     0.0000     3.0000 </r>
       <r>   -15.1337     0.0000     3.0000 </r>
       <r>   -15.0188     0.0000     3.0000 </r>
       <r>   -14.9039     0.0000     3.0000 </r>
       <r>   -14.7890     0.0000     3.0000 </r>
       <r>   -14.6742     0.0000     3.0000 </r>
       <r>   -14.5593     0.0000     3.0000 </r>
       <r>   -14.4444     0.0000     3.0000 </r>
       <r>   -14.3295     0.0000     3.0000 </r>
       <r>   -14.2146     0.0000     3.0000 </r>
       <r>   -14.0997     0.0000     3.0000 </r>
       <r>   -13.9848     0.0000     3.0000 </r>
       <r>   -13.8699     0.0000     3.0000 </r>
       <r>   -13.7550     0.0000     3.0000 </r>
       <r>   -13.6401     0.0000     3.0000 </r>
       <r>   -13.5252     0.0000     3.0000 </r>
       <r>   -13.4103     0.0000     3.0000 </r>
       <r>   -13.2954     0.0000     3.0000 </r>
       <r>   -13.1805     0.0000     3.0000 </r>
       <r>   -13.0656     0.0000     3.0000 </r>
       <r>   -12.9507     0.0000     3.0000 </r>
       <r>   -12.8358     0.0000     3.0000 </r>
       <r>   -12.7210     0.0000     3.0000 </r>
       <r>   -12.6061     0.0000     3.0000 </r>
       <r>   -12.4912     0.0000     3.0000 </r>
       <r>   -12.3763     0.0000     3.0000 </r>
       <r>   -12.2614     0.0000     3.0000 </r>
       <r>   -12.1465     0.0000     3.0000 </r>
       <r>   -12.0316     0.0000     3.0000 </r>
       <r>   -11.9167     0.0000     3.0000 </r>
       <r>   -11.8018     0.0001     3.0000 </r>
       <r>   -11.6869     0.0024     3.0003 </r>
       <r>   -11.5720     0.0330     3.0041 </r>
       <r>   -11.4571     0.2551     3.0334 </r>
       <r>   -11.3422     1.1420     3.1646 </r>
       <r>   -11.2273     3.0196     3.5115 </r>
       <r>   -11.1124     4.7837     4.0612 </r>
       <r>   -10.9975     4.5558     4.5846 </r>
       <r>   -10.8826     2.5828     4.8813 </r>
       <r>   -10.7678     0.8725     4.9816 </r>
       <r>   -10.6529     0.3620     5.0232 </r>
       <r>   -10.5380     1.2919     5.1716 </r>
       <r>   -10.4231     4.8155     5.7249 </r>
       <r>   -10.3082    11.0268     6.9918 </r>
       <r>   -10.1933    15.7332     8.7995 </r>
       <r>   -10.0784    14.4836    10.4635 </r>
       <r>    -9.9635     8.8299    11.4780 </r>
       <r>    -9.8486     3.5251    11.8831 </r>
       <r>    -9.7337     0.8778    11.9839 </r>
       <r>    -9.6188     0.1289    11.9987 </r>
       <r>    -9.5039     0.0107    11.9999 </r>
       <r>    -9.3890     0.0005    12.0000 </r>
       <r>    -9.2741     0.0001    12.0000 </r>
       <r>    -9.1592     0.0022    12.0003 </r>
       <r>    -9.0443     0.0207    12.0026 </r>
       <r>    -8.9294     0.1239    12.0169 </r>
       <r>    -8.8146     0.4950    12.0738 </r>
       <r>    -8.6997     1.3573    12.2297 </r>
       <r>    -8.5848     2.5867    12.5269 </r>
       <r>    -8.4699     3.6181    12.9426 </r>
       <r>    -8.3550     3.9078    13.3916 </r>
       <r>    -8.2401     3.0930    13.7469 </r>
       <r>    -8.1252     1.6027    13.9311 </r>
       <r>    -8.0103     0.5002    13.9885 </r>
       <r>    -7.8954     0.0900    13.9989 </r>
       <r>    -7.7805     0.0092    13.9999 </r>
       <r>    -7.6656     0.0005    14.0000 </r>
       <r>    -7.5507     0.0000    14.0000 </r>
       <r>    -7.4358     0.0000    14.0000 </r>
       <r>    -7.3209     0.0000    14.0000 </r>
       <r>    -7.2060     0.0004    14.0000 </r>
       <r>    -7.0911     0.0121    14.0014 </r>
       <r>    -6.9762     0.1952    14.0239 </r>
       <r>    -6.8613     1.6736    14.2161 </r>
       <r>    -6.7465     7.6586    15.0961 </r>
       <r>    -6.6316    18.7582    17.2513 </r>
       <r>    -6.5167    24.6371    20.0819 </r>
       <r>    -6.4018    17.3618    22.0767 </r>
       <r>    -6.2869     6.5591    22.8303 </r>
       <r>    -6.1720     1.3256    22.9826 </r>
       <r>    -6.0571     0.1429    22.9990 </r>
       <r>    -5.9422     0.0082    23.0000 </r>
       <r>    -5.8273     0.0002    23.0000 </r>
       <r>    -5.7124     0.0000    23.0000 </r>
       <r>    -5.5975     0.0000    23.0000 </r>
       <r>    -5.4826     0.0000    23.0000 </r>
       <r>    -5.3677     0.0000    23.0000 </r>
       <r>    -5.2528     0.0000    23.0000 </r>
       <r>    -5.1379     0.0000    23.0000 </r>
       <r>    -5.0230     0.0000    23.0000 </r>
       <r>    -4.9081     0.0000    23.0000 </r>
       <r>    -4.7933     0.0000    23.0000 </r>
       <r>    -4.6784     0.0000    23.0000 </r>
       <r>    -4.5635     0.0000    23.0000 </r>
       <r>    -4.4486     0.0000    23.0000 </r>
       <r>    -4.3337     0.0000    23.0000 </r>
       <r>    -4.2188     0.0000    23.0000 </r>
[...]
        <r>  0.0001  0.0007  0.0085  0.0019  0.0012  0.0008  0.0030  0.0012  0.0007 </r>
        <r>  0.0001  0.0001  0.0039  0.0015  0.0001  0.0008  0.0007  0.0004  0.0008 </r>
        <r>  0.0001  0.0010  0.0039  0.0006  0.0004  0.0009  0.0008  0.0002  0.0004 </r>
       </set>
       <set comment="band 83">
        <r>  0.0000  0.0118  0.0000  0.0040  0.0196  0.0066  0.0000  0.0196  0.0066 </r>
        <r>  0.0003  0.0000  0.0053  0.0000  0.0004  0.0031  0.0001  0.0031  0.0004 </r>
        <r>  0.0003  0.0000  0.0053  0.0000  0.0004  0.0031  0.0001  0.0031  0.0004 </r>
        <r>  0.0000  0.0003  0.0013  0.0003  0.0037  0.0017  0.0168  0.0017  0.0037 </r>
        <r>  0.0000  0.0003  0.0013  0.0003  0.0037  0.0017  0.0168  0.0017  0.0037 </r>
        <r>  0.0000  0.0096  0.0033  0.0012  0.0073  0.0005  0.0000  0.0020  0.0002 </r>
        <r>  0.0000  0.0062  0.0033  0.0046  0.0031  0.0008  0.0000  0.0016  0.0045 </r>
        <r>  0.0000  0.0137  0.0000  0.0046  0.0134  0.0008  0.0001  0.0023  0.0045 </r>
        <r>  0.0002  0.0007  0.0023  0.0006  0.0002  0.0002  0.0000  0.0006  0.0003 </r>
        <r>  0.0001  0.0013  0.0070  0.0010  0.0013  0.0003  0.0022  0.0014  0.0002 </r>
        <r>  0.0001  0.0020  0.0069  0.0003  0.0004  0.0012  0.0022  0.0005  0.0011 </r>
        <r>  0.0002  0.0007  0.0023  0.0006  0.0002  0.0002  0.0000  0.0006  0.0003 </r>
        <r>  0.0001  0.0013  0.0070  0.0010  0.0013  0.0003  0.0022  0.0014  0.0002 </r>
        <r>  0.0001  0.0020  0.0069  0.0003  0.0004  0.0012  0.0022  0.0005  0.0011 </r>
       </set>
       <set comment="band 84">
        <r>  0.0000  0.0000  0.0019  0.0000  0.0000  0.0000  0.0000  0.0000  0.0000 </r>
        <r>  0.0000  0.0017  0.0000  0.0017  0.0005  0.0000  0.0000  0.0000  0.0005 </r>
        <r>  0.0000  0.0017  0.0000  0.0017  0.0005  0.0000  0.0000  0.0000  0.0005 </r>
        <r>  0.0000  0.0009  0.0000  0.0009  0.0061  0.0026  0.0000  0.0026  0.0061 </r>
        <r>  0.0000  0.0009  0.0000  0.0009  0.0061  0.0026  0.0000  0.0026  0.0061 </r>
        <r>  0.0000  0.0007  0.0057  0.0020  0.0010  0.0005  0.0000  0.0002  0.0030 </r>
        <r>  0.0000  0.0026  0.0057  0.0000  0.0040  0.0000  0.0000  0.0006  0.0000 </r>
        <r>  0.0000  0.0007  0.0057  0.0020  0.0010  0.0005  0.0000  0.0002  0.0030 </r>
        <r>  0.0007  0.0032  0.0006  0.0072  0.0069  0.0028  0.0001  0.0021  0.0029 </r>
        <r>  0.0007  0.0032  0.0006  0.0072  0.0069  0.0028  0.0001  0.0021  0.0029 </r>
        <r>  0.0007  0.0092  0.0006  0.0012  0.0009  0.0017  0.0001  0.0032  0.0089 </r>
        <r>  0.0007  0.0032  0.0006  0.0072  0.0069  0.0028  0.0001  0.0021  0.0029 </r>
        <r>  0.0007  0.0032  0.0006  0.0072  0.0069  0.0028  0.0001  0.0021  0.0029 </r>
        <r>  0.0007  0.0092  0.0006  0.0012  0.0009  0.0017  0.0001  0.0032  0.0089 </r>
       </set>
       <set comment="band 85">
        <r>  0.0000  0.0007  0.0000  0.0021  0.0075  0.0041  0.0000  0.0014  0.0219 </r>
        <r>  0.0004  0.0034  0.0058  0.0034  0.0057  0.0058  0.0019  0.0058  0.0057 </r>
        <r>  0.0004  0.0034  0.0058  0.0034  0.0057  0.0058  0.0019  0.0058  0.0057 </r>
        <r>  0.0000  0.0020  0.0002  0.0020  0.0021  0.0001  0.0031  0.0001  0.0021 </r>
        <r>  0.0000  0.0020  0.0002  0.0020  0.0021  0.0001  0.0031  0.0001  0.0021 </r>
        <r>  0.0013  0.0033  0.0025  0.0005  0.0004  0.0000  0.0010  0.0023  0.0000 </r>
        <r>  0.0013  0.0023  0.0026  0.0015  0.0000  0.0019  0.0010  0.0004  0.0004 </r>
        <r>  0.0000  0.0023  0.0102  0.0068  0.0000  0.0011  0.0000  0.0004  0.0001 </r>
        <r>  0.0000  0.0019  0.0011  0.0012  0.0011  0.0013  0.0034  0.0018  0.0016 </r>
        <r>  0.0000  0.0032  0.0013  0.0002  0.0015  0.0007  0.0014  0.0003  0.0071 </r>
        <r>  0.0000  0.0003  0.0013  0.0032  0.0063  0.0005  0.0014  0.0005  0.0024 </r>
        <r>  0.0000  0.0019  0.0011  0.0012  0.0011  0.0013  0.0034  0.0018  0.0016 </r>
        <r>  0.0000  0.0032  0.0013  0.0002  0.0015  0.0007  0.0014  0.0003  0.0071 </r>
        <r>  0.0000  0.0003  0.0013  0.0032  0.0063  0.0005  0.0014  0.0005  0.0024 </r>
       </set>
       <set comment="band 86">
        <r>  0.0000  0.0021  0.0000  0.0007  0.0219  0.0014  0.0000  0.0041  0.0075 </r>
        <r>  0.0004  0.0034  0.0058  0.0034  0.0057  0.0058  0.0019  0.0058  0.0057 </r>
        <r>  0.0004  0.0034  0.0058  0.0034  0.0057  0.0058  0.0019  0.0058  0.0057 </r>
        <r>  0.0000  0.0020  0.0002  0.0020  0.0021  0.0001  0.0031  0.0001  0.0021 </r>
        <r>  0.0000  0.0020  0.0002  0.0020  0.0021  0.0001  0.0031  0.0001  0.0021 </r>
        <r>  0.0004  0.0005  0.0077  0.0069  0.0000  0.0017  0.0003  0.0000  0.0002 </r>
        <r>  0.0004  0.0068  0.0076  0.0005  0.0001  0.0006  0.0003  0.0011  0.0001 </r>
        <r>  0.0017  0.0015  0.0000  0.0005  0.0004  0.0006  0.0013  0.0019  0.0001 </r>
        <r>  0.0000  0.0027  0.0014  0.0009  0.0041  0.0002  0.0007  0.0001  0.0066 </r>
        <r>  0.0000  0.0013  0.0012  0.0019  0.0036  0.0009  0.0027  0.0015  0.0010 </r>
        <r>  0.0000  0.0006  0.0012  0.0026  0.0034  0.0015  0.0027  0.0009  0.0013 </r>
        <r>  0.0000  0.0027  0.0014  0.0009  0.0041  0.0002  0.0007  0.0001  0.0066 </r>
        <r>  0.0000  0.0013  0.0012  0.0019  0.0036  0.0009  0.0027  0.0015  0.0010 </r>
        <r>  0.0000  0.0006  0.0012  0.0026  0.0034  0.0015  0.0027  0.0009  0.0013 </r>
       </set>
       <set comment="band 87">
        <r>  0.0000  0.0007  0.0000  0.0002  0.0004  0.0007  0.0000  0.0021  0.0001 </r>
        <r>  0.0001  0.0022  0.0000  0.0022  0.0013  0.0004  0.0006  0.0004  0.0013 </r>
        <r>  0.0001  0.0022  0.0000  0.0022  0.0013  0.0004  0.0006  0.0004  0.0013 </r>
        <r>  0.0013  0.0007  0.0002  0.0007  0.0001  0.0009  0.0001  0.0009  0.0001 </r>
        <r>  0.0013  0.0007  0.0002  0.0007  0.0001  0.0009  0.0001  0.0009  0.0001 </r>
        <r>  0.0008  0.0000  0.0032  0.0002  0.0006  0.0064  0.0002  0.0019  0.0020 </r>
        <r>  0.0008  0.0001  0.0032  0.0000  0.0026  0.0000  0.0002  0.0083  0.0000 </r>
        <r>  0.0031  0.0001  0.0000  0.0000  0.0000  0.0000  0.0007  0.0000  0.0000 </r>
        <r>  0.0034  0.0014  0.0017  0.0011  0.0001  0.0094  0.0000  0.0037  0.0001 </r>
        <r>  0.0013  0.0019  0.0017  0.0001  0.0021  0.0041  0.0011  0.0001  0.0075 </r>
        <r>  0.0013  0.0007  0.0017  0.0013  0.0090  0.0006  0.0011  0.0036  0.0006 </r>
        <r>  0.0034  0.0014  0.0017  0.0011  0.0001  0.0094  0.0000  0.0037  0.0001 </r>
        <r>  0.0013  0.0019  0.0017  0.0001  0.0021  0.0041  0.0011  0.0001  0.0075 </r>
        <r>  0.0013  0.0007  0.0017  0.0013  0.0090  0.0006  0.0011  0.0036  0.0006 </r>
       </set>
       <set comment="band 88">
        <r>  0.0000  0.0002  0.0000  0.0007  0.0001  0.0021  0.0000  0.0007  0.0004 </r>
        <r>  0.0001  0.0022  0.0000  0.0022  0.0013  0.0004  0.0006  0.0004  0.0013 </r>
        <r>  0.0001  0.0022  0.0000  0.0022  0.0013  0.0004  0.0006  0.0004  0.0013 </r>
        <r>  0.0013  0.0007  0.0002  0.0007  0.0001  0.0009  0.0001  0.0009  0.0001 </r>
        <r>  0.0013  0.0007  0.0002  0.0007  0.0001  0.0009  0.0001  0.0009  0.0001 </r>
        <r>  0.0023  0.0002  0.0011  0.0000  0.0003  0.0019  0.0005  0.0009  0.0006 </r>
        <r>  0.0023  0.0000  0.0011  0.0001  0.0009  0.0000  0.0005  0.0027  0.0000 </r>
        <r>  0.0000  0.0000  0.0043  0.0001  0.0009  0.0083  0.0000  0.0028  0.0026 </r>
        <r>  0.0006  0.0011  0.0017  0.0008  0.0035  0.0006  0.0015  0.0005  0.0091 </r>
        <r>  0.0027  0.0005  0.0017  0.0018  0.0016  0.0060  0.0004  0.0041  0.0018 </r>
        <r>  0.0027  0.0009  0.0017  0.0015  0.0031  0.0008  0.0004  0.0094  0.0003 </r>
        <r>  0.0006  0.0011  0.0017  0.0008  0.0035  0.0006  0.0015  0.0005  0.0091 </r>
        <r>  0.0027  0.0005  0.0017  0.0018  0.0016  0.0060  0.0004  0.0041  0.0018 </r>
        <r>  0.0027  0.0009  0.0017  0.0015  0.0031  0.0008  0.0004  0.0094  0.0003 </r>
       </set>
       <set comment="band 89">
        <r>  0.0000  0.0000  0.0299  0.0000  0.0000  0.0000  0.0000  0.0000  0.0000 </r>
        <r>  0.0000  0.0023  0.0000  0.0023  0.0006  0.0001  0.0000  0.0001  0.0006 </r>
        <r>  0.0000  0.0023  0.0000  0.0023  0.0006  0.0001  0.0000  0.0001  0.0006 </r>
        <r>  0.0000  0.0008  0.0000  0.0008  0.0006  0.0000  0.0000  0.0000  0.0006 </r>
        <r>  0.0000  0.0008  0.0000  0.0008  0.0006  0.0000  0.0000  0.0000  0.0006 </r>
        <r>  0.0000  0.0005  0.0000  0.0015  0.0008  0.0000  0.0000  0.0000  0.0024 </r>
        <r>  0.0000  0.0020  0.0000  0.0000  0.0031  0.0000  0.0000  0.0000  0.0000 </r>
        <r>  0.0000  0.0005  0.0000  0.0015  0.0008  0.0000  0.0000  0.0000  0.0024 </r>
        <r>  0.0000  0.0010  0.0076  0.0010  0.0037  0.0033  0.0000  0.0071  0.0013 </r>
        <r>  0.0000  0.0010  0.0076  0.0010  0.0037  0.0033  0.0000  0.0071  0.0013 </r>
        <r>  0.0000  0.0009  0.0076  0.0010  0.0000  0.0090  0.0000  0.0014  0.0050 </r>
        <r>  0.0000  0.0010  0.0076  0.0010  0.0037  0.0033  0.0000  0.0071  0.0013 </r>
        <r>  0.0000  0.0010  0.0076  0.0010  0.0037  0.0033  0.0000  0.0071  0.0013 </r>
        <r>  0.0000  0.0009  0.0076  0.0010  0.0000  0.0090  0.0000  0.0014  0.0050 </r>
       </set>
       <set comment="band 90">
        <r>  0.0000  0.0000  0.0000  0.0000  0.0000  0.0000  0.0641  0.0000  0.0000 </r>
        <r>  0.0000  0.0010  0.0000  0.0010  0.0001  0.0033  0.0000  0.0033  0.0001 </r>
        <r>  0.0000  0.0010  0.0000  0.0010  0.0001  0.0033  0.0000  0.0033  0.0001 </r>
        <r>  0.0000  0.0004  0.0000  0.0004  0.0005  0.0199  0.0000  0.0199  0.0005 </r>
        <r>  0.0000  0.0004  0.0000  0.0004  0.0005  0.0199  0.0000  0.0199  0.0005 </r>
        <r>  0.0013  0.0001  0.0000  0.0000  0.0001  0.0005  0.0030  0.0016  0.0000 </r>
        <r>  0.0013  0.0000  0.0000  0.0001  0.0000  0.0022  0.0030  0.0000  0.0001 </r>
        <r>  0.0013  0.0001  0.0000  0.0000  0.0001  0.0005  0.0030  0.0016  0.0000 </r>
        <r>  0.0010  0.0001  0.0021  0.0001  0.0084  0.0007  0.0052  0.0003  0.0043 </r>
        <r>  0.0010  0.0001  0.0021  0.0001  0.0084  0.0007  0.0052  0.0003  0.0043 </r>
        <r>  0.0010  0.0001  0.0021  0.0002  0.0022  0.0001  0.0052  0.0009  0.0105 </r>
        <r>  0.0010  0.0001  0.0021  0.0001  0.0084  0.0007  0.0052  0.0003  0.0043 </r>
        <r>  0.0010  0.0001  0.0021  0.0001  0.0084  0.0007  0.0052  0.0003  0.0043 </r>
        <r>  0.0010  0.0001  0.0021  0.0002  0.0022  0.0001  0.0052  0.0009  0.0105 </r>
       </set>
       <set comment="band 91">
        <r>  0.0000  0.0000  0.0003  0.0000  0.0000  0.0000  0.0000  0.0000  0.0000 </r>
        <r>  0.0000  0.0017  0.0000  0.0017  0.0001  0.0006  0.0000  0.0006  0.0001 </r>
        <r>  0.0000  0.0017  0.0000  0.0017  0.0001  0.0006  0.0000  0.0006  0.0001 </r>
        <r>  0.0000  0.0173  0.0000  0.0173  0.0008  0.0029  0.0000  0.0029  0.0008 </r>
        <r>  0.0000  0.0173  0.0000  0.0173  0.0008  0.0029  0.0000  0.0029  0.0008 </r>
        <r>  0.0000  0.0000  0.0000  0.0000  0.0024  0.0023  0.0000  0.0008  0.0071 </r>
        <r>  0.0000  0.0000  0.0000  0.0000  0.0095  0.0000  0.0000  0.0030  0.0000 </r>
        <r>  0.0000  0.0000  0.0000  0.0000  0.0024  0.0023  0.0000  0.0008  0.0071 </r>
        <r>  0.0046  0.0026  0.0052  0.0078  0.0000  0.0024  0.0002  0.0011  0.0000 </r>
        <r>  0.0046  0.0026  0.0051  0.0078  0.0000  0.0024  0.0002  0.0011  0.0000 </r>
        <r>  0.0046  0.0103  0.0051  0.0001  0.0000  0.0004  0.0002  0.0031  0.0000 </r>
        <r>  0.0046  0.0026  0.0051  0.0078  0.0000  0.0024  0.0002  0.0011  0.0000 </r>
        <r>  0.0046  0.0027  0.0051  0.0078  0.0000  0.0024  0.0002  0.0011  0.0000 </r>
        <r>  0.0046  0.0103  0.0051  0.0001  0.0000  0.0004  0.0002  0.0031  0.0000 </r>
       </set>
       <set comment="band 92">
        <r>  0.0000  0.0016  0.0000  0.0048  0.0007  0.0159  0.0000  0.0054  0.0021 </r>
        <r>  0.0000  0.0003  0.0069  0.0003  0.0059  0.0039  0.0002  0.0039  0.0059 </r>
        <r>  0.0000  0.0003  0.0069  0.0003  0.0059  0.0039  0.0002  0.0039  0.0059 </r>
        <r>  0.0000  0.0001  0.0000  0.0001  0.0029  0.0020  0.0105  0.0020  0.0029 </r>
        <r>  0.0000  0.0001  0.0000  0.0001  0.0029  0.0020  0.0105  0.0020  0.0029 </r>
        <r>  0.0000  0.0013  0.0000  0.0001  0.0004  0.0017  0.0161  0.0028  0.0003 </r>
        <r>  0.0000  0.0001  0.0000  0.0014  0.0000  0.0007  0.0160  0.0039  0.0007 </r>
        <r>  0.0000  0.0001  0.0000  0.0002  0.0000  0.0117  0.0000  0.0039  0.0001 </r>
        <r>  0.0000  0.0001  0.0014  0.0003  0.0010  0.0024  0.0042  0.0008  0.0031 </r>
        <r>  0.0001  0.0005  0.0007  0.0006  0.0018  0.0024  0.0022  0.0003  0.0022 </r>
        <r>  0.0001  0.0004  0.0007  0.0008  0.0037  0.0004  0.0023  0.0023  0.0003 </r>
        <r>  0.0000  0.0001  0.0014  0.0003  0.0010  0.0024  0.0042  0.0008  0.0030 </r>
        <r>  0.0001  0.0005  0.0007  0.0006  0.0018  0.0024  0.0022  0.0003  0.0022 </r>
        <r>  0.0001  0.0004  0.0007  0.0008  0.0037  0.0004  0.0023  0.0023  0.0003 </r>
       </set>
       <set comment="band 93">
        <r>  0.0000  0.0048  0.0000  0.0016  0.0021  0.0054  0.0000  0.0159  0.0007 </r>
        <r>  0.0000  0.0003  0.0069  0.0003  0.0059  0.0039  0.0002  0.0039  0.0059 </r>
        <r>  0.0000  0.0003  0.0069  0.0003  0.0059  0.0039  0.0002  0.0039  0.0059 </r>
        <r>  0.0000  0.0001  0.0000  0.0001  0.0029  0.0020  0.0105  0.0020  0.0029 </r>
        <r>  0.0000  0.0001  0.0000  0.0001  0.0029  0.0020  0.0105  0.0020  0.0029 </r>
        <r>  0.0000  0.0001  0.0000  0.0005  0.0003  0.0103  0.0053  0.0017  0.0000 </r>
        <r>  0.0000  0.0002  0.0000  0.0005  0.0001  0.0002  0.0054  0.0117  0.0002 </r>
        <r>  0.0000  0.0014  0.0000  0.0005  0.0007  0.0002  0.0214  0.0007  0.0002 </r>
        <r>  0.0001  0.0008  0.0005  0.0005  0.0012  0.0016  0.0016  0.0009  0.0028 </r>
        <r>  0.0000  0.0005  0.0012  0.0002  0.0005  0.0016  0.0035  0.0014  0.0036 </r>
        <r>  0.0000  0.0003  0.0011  0.0003  0.0039  0.0002  0.0035  0.0029  0.0001 </r>
        <r>  0.0001  0.0008  0.0005  0.0005  0.0012  0.0016  0.0016  0.0009  0.0028 </r>
        <r>  0.0000  0.0005  0.0012  0.0002  0.0005  0.0016  0.0035  0.0014  0.0036 </r>
        <r>  0.0000  0.0003  0.0012  0.0003  0.0039  0.0002  0.0035  0.0029  0.0001 </r>
       </set>
       <set comment="band 94">
        <r>  0.0000  0.0000  0.0055  0.0000  0.0000  0.0000  0.0000  0.0000  0.0000 </r>
        <r>  0.0000  0.0004  0.0000  0.0004  0.0076  0.0144  0.0000  0.0144  0.0076 </r>
        <r>  0.0000  0.0004  0.0000  0.0004  0.0076  0.0144  0.0000  0.0144  0.0076 </r>
        <r>  0.0000  0.0003  0.0000  0.0003  0.0004  0.0000  0.0000  0.0000  0.0004 </r>
        <r>  0.0000  0.0003  0.0000  0.0003  0.0004  0.0000  0.0000  0.0000  0.0004 </r>
        <r>  0.0000  0.0003  0.0018  0.0009  0.0026  0.0001  0.0000  0.0000  0.0079 </r>
        <r>  0.0000  0.0012  0.0018  0.0000  0.0105  0.0000  0.0000  0.0001  0.0000 </r>
        <r>  0.0000  0.0003  0.0018  0.0009  0.0026  0.0001  0.0000  0.0000  0.0079 </r>
        <r>  0.0001  0.0003  0.0007  0.0002  0.0003  0.0051  0.0087  0.0018  0.0006 </r>
        <r>  0.0001  0.0003  0.0007  0.0002  0.0003  0.0051  0.0087  0.0018  0.0006 </r>
        <r>  0.0001  0.0002  0.0007  0.0003  0.0008  0.0001  0.0087  0.0067  0.0001 </r>
        <r>  0.0001  0.0003  0.0007  0.0002  0.0003  0.0051  0.0087  0.0018  0.0006 </r>
        <r>  0.0001  0.0003  0.0007  0.0002  0.0003  0.0051  0.0087  0.0018  0.0006 </r>
        <r>  0.0001  0.0002  0.0007  0.0003  0.0008  0.0001  0.0087  0.0067  0.0001 </r>
       </set>
       <set comment="band 95">
        <r>  0.0000  0.0000  0.0000  0.0000  0.0088  0.0000  0.0000  0.0000  0.0052 </r>
        <r>  0.0000  0.0006  0.0001  0.0005  0.0059  0.0051  0.0084  0.0051  0.0058 </r>
        <r>  0.0000  0.0002  0.0003  0.0002  0.0018  0.0016  0.0270  0.0016  0.0018 </r>
        <r>  0.0002  0.0041  0.0016  0.0041  0.0001  0.0000  0.0002  0.0000  0.0001 </r>
        <r>  0.0006  0.0013  0.0050  0.0013  0.0000  0.0000  0.0007  0.0000  0.0000 </r>
        <r>  0.0002  0.0010  0.0004  0.0018  0.0011  0.0047  0.0011  0.0021  0.0055 </r>
        <r>  0.0003  0.0022  0.0003  0.0001  0.0052  0.0001  0.0020  0.0054  0.0002 </r>
        <r>  0.0007  0.0002  0.0000  0.0003  0.0008  0.0007  0.0050  0.0002  0.0005 </r>
        <r>  0.0012  0.0008  0.0005  0.0003  0.0021  0.0007  0.0088  0.0021  0.0015 </r>
        <r>  0.0024  0.0013  0.0001  0.0007  0.0038  0.0048  0.0034  0.0008  0.0026 </r>
        <r>  0.0021  0.0001  0.0002  0.0018  0.0019  0.0012  0.0046  0.0038  0.0039 </r>
        <r>  0.0001  0.0001  0.0007  0.0001  0.0002  0.0048  0.0066  0.0053  0.0002 </r>
        <r>  0.0013  0.0007  0.0003  0.0005  0.0019  0.0089  0.0011  0.0041  0.0013 </r>
        <r>  0.0010  0.0001  0.0004  0.0009  0.0009  0.0039  0.0023  0.0085  0.0017 </r>
       </set>
       <set comment="band 96">
        <r>  0.0000  0.0000  0.0000  0.0000  0.0051  0.0000  0.0000  0.0000  0.0088 </r>
        <r>  0.0000  0.0002  0.0003  0.0002  0.0019  0.0016  0.0271  0.0016  0.0018 </r>
        <r>  0.0000  0.0005  0.0001  0.0006  0.0058  0.0051  0.0084  0.0051  0.0059 </r>
        <r>  0.0006  0.0013  0.0050  0.0013  0.0000  0.0000  0.0007  0.0000  0.0000 </r>
        <r>  0.0002  0.0041  0.0016  0.0041  0.0001  0.0000  0.0002  0.0000  0.0000 </r>
        <r>  0.0006  0.0001  0.0001  0.0009  0.0014  0.0018  0.0042  0.0002  0.0008 </r>
        <r>  0.0005  0.0013  0.0002  0.0001  0.0031  0.0001  0.0034  0.0032  0.0004 </r>
        <r>  0.0001  0.0009  0.0005  0.0023  0.0018  0.0058  0.0004  0.0021  0.0059 </r>
        <r>  0.0015  0.0010  0.0002  0.0004  0.0021  0.0088  0.0001  0.0048  0.0016 </r>
        <r>  0.0003  0.0004  0.0006  0.0000  0.0005  0.0046  0.0056  0.0060  0.0004 </r>
        <r>  0.0006  0.0002  0.0005  0.0005  0.0005  0.0044  0.0043  0.0068  0.0010 </r>
        <r>  0.0026  0.0016  0.0000  0.0006  0.0041  0.0045  0.0023  0.0015  0.0029 </r>
        <r>  0.0014  0.0011  0.0004  0.0002  0.0024  0.0005  0.0078  0.0028  0.0017 </r>
        <r>  0.0016  0.0002  0.0003  0.0014  0.0015  0.0017  0.0066  0.0023  0.0032 </r>
       </set>
      </set>
     </set>
    </set>
   </array>
  </projected>
 </calculation>
 <structure name="finalpos" >
  <crystal>
   <varray name="basis" >
    <v>       8.72996100       0.00000000       0.00000000 </v>
    <v>      -4.36498100       7.56036800       0.00000000 </v>
    <v>       0.00000000       0.00000000      10.81646900 </v>
   </varray>
   <i name="volume">    713.90553438 </i>
   <varray name="rec_basis" >
    <v>       0.11454805       0.06613435       0.00000000 </v>
    <v>       0.00000000       0.13226869       0.00000000 </v>
    <v>       0.00000000       0.00000000       0.09245161 </v>
   </varray>
  </crystal>
  <varray name="positions" >
   <v>       0.00000000       0.00000000       0.00000000 </v>
   <v>       0.33333300       0.66666700       0.32532400 </v>
   <v>       0.66666700       0.33333300       0.67467600 </v>
   <v>       0.33333300       0.66666700       0.80751800 </v>
   <v>       0.66666700       0.33333300       0.19248200 </v>
   <v>       0.00000000       0.50000000       0.00000000 </v>
   <v>       0.50000000       0.00000000       0.00000000 </v>
   <v>       0.50000000       0.50000000       0.00000000 </v>
   <v>       0.16502400       0.83497600       0.66246600 </v>
   <v>       0.66995100       0.83497600       0.66246600 </v>
   <v>       0.16502400       0.33004900       0.66246600 </v>
   <v>       0.83497600       0.16502400       0.33753400 </v>
   <v>       0.33004900       0.16502400       0.33753400 </v>
   <v>       0.83497600       0.66995100       0.33753400 </v>
  </varray>
 </structure>
</modeling>
