PROCAR lm decomposed
# of k-points:    6         # of bands:   96         # of ions:   14

 k-point     1 :    0.00000000 0.00000000 0.00000000     weight = 0.05555556

band     1 # energy  -19.79754189 # occ.  1.00000000
 
ion      s     py     pz     px    dxy    dyz    dz2    dxz  x2-y2    tot
    1  0.905  0.000  0.000  0.000  0.000  0.000  0.000  0.000  0.000  0.905
    2  0.004  0.000  0.000  0.000  0.000  0.000  0.000  0.000  0.000  0.004
    3  0.004  0.000  0.000  0.000  0.000  0.000  0.000  0.000  0.000  0.004
    4  0.000  0.000  0.000  0.000  0.000  0.000  0.000  0.000  0.000  0.000
    5  0.000  0.000  0.000  0.000  0.000  0.000  0.000  0.000  0.000  0.000
    6  0.000  0.000  0.000  0.000  0.000  0.000  0.000  0.000  0.000  0.000
    7  0.000  0.000  0.000  0.000  0.000  0.000  0.000  0.000  0.000  0.000
    8  0.000  0.000  0.000  0.000  0.000  0.000  0.000  0.000  0.000  0.000
    9  0.000  0.000  0.000  0.000  0.000  0.000  0.000  0.000  0.000  0.000
   10  0.000  0.000  0.000  0.000  0.000  0.000  0.000  0.000  0.000  0.000
   11  0.000  0.000  0.000  0.000  0.000  0.000  0.000  0.000  0.000  0.000
   12  0.000  0.000  0.000  0.000  0.000  0.000  0.000  0.000  0.000  0.000
   13  0.000  0.000  0.000  0.000  0.000  0.000  0.000  0.000  0.000  0.000
   14  0.000  0.000  0.000  0.000  0.000  0.000  0.000  0.000  0.000  0.000
tot    0.913  0.000  0.000  0.000  0.000  0.000  0.000  0.000  0.000  0.913
 
band     2 # energy  -19.79260045 # occ.  1.00000000
 
ion      s     py     pz     px    dxy    dyz    dz2    dxz  x2-y2    tot
    1  0.008  0.000  0.000  0.000  0.000  0.000  0.000  0.000  0.000  0.008
    2  0.452  0.000  0.000  0.000  0.000  0.000  0.000  0.000  0.000  0.452
    3  0.452  0.000  0.000  0.000  0.000  0.000  0.000  0.000  0.000  0.452
    4  0.000  0.000  0.000  0.000  0.000  0.000  0.000  0.000  0.000  0.000
    5  0.000  0.000  0.000  0.000  0.000  0.000  0.000  0.000  0.000  0.000
    6  0.000  0.000  0.000  0.000  0.000  0.000  0.000  0.000  0.000  0.000
    7  0.000  0.000  0.000  0.000  0.000  0.000  0.000  0.000  0.000  0.000
    8  0.000  0.000  0.000  0.000  0.000  0.000  0.000  0.000  0.000  0.000
    9  0.000  0.000  0.000  0.000  0.000  0.000  0.000  0.000  0.000  0.000
   10  0.000  0.000  0.000  0.000  0.000  0.000  0.000  0.000  0.000  0.000
   11  0.000  0.000  0.000  0.000  0.000  0.000  0.000  0.000  0.000  0.000
   12  0.000  0.000  0.000  0.000  0.000  0.000  0.000  0.000  0.000  0.000
   13  0.000  0.000  0.000  0.000  0.000  0.000  0.000  0.000  0.000  0.000
   14  0.000  0.000  0.000  0.000  0.000  0.000  0.000  0.000  0.000  0.000
tot    0.913  0.000  0.000  0.000  0.000  0.000  0.000  0.000  0.000  0.913
 
band     3 # energy  -19.79217740 # occ.  1.00000000
 
ion      s     py     pz     px    dxy    dyz    dz2    dxz  x2-y2    tot
    1  0.000  0.000  0.000  0.000  0.000  0.000  0.000  0.000  0.000  0.000
    2  0.457  0.000  0.000  0.000  0.000  0.000  0.000  0.000  0.000  0.457
    3  0.457  0.000  0.000  0.000  0.000  0.000  0.000  0.000  0.000  0.457
    4  0.000  0.000  0.000  0.000  0.000  0.000  0.000  0.000  0.000  0.000
    5  0.000  0.000  0.000  0.000  0.000  0.000  0.000  0.000  0.000  0.000
    6  0.000  0.000  0.000  0.000  0.000  0.000  0.000  0.000  0.000  0.000
    7  0.000  0.000  0.000  0.000  0.000  0.000  0.000  0.000  0.000  0.000
    8  0.000  0.000  0.000  0.000  0.000  0.000  0.000  0.000  0.000  0.000
    9  0.000  0.000  0.000  0.000  0.000  0.000  0.000  0.000  0.000  0.000
   10  0.000  0.000  0.000  0.000  0.000  0.000  0.000  0.000  0.000  0.000
   11  0.000  0.000  0.000  0.000  0.000  0.000  0.000  0.000  0.000  0.000
   12  0.000  0.000  0.000  0.000  0.000  0.000  0.000  0.000  0.000  0.000
   13  0.000  0.000  0.000  0.000  0.000  0.000  0.000  0.000  0.000  0.000
   14  0.000  0.000  0.000  0.000  0.000  0.000  0.000  0.000  0.000  0.000
tot    0.913  0.000  0.000  0.000  0.000  0.000  0.000  0.000  0.000  0.913
 
band     4 # energy  -11.27005378 # occ.  1.00000000
 
ion      s     py     pz     px    dxy    dyz    dz2    dxz  x2-y2    tot
    1  0.000  0.000  0.000  0.000  0.000  0.000  0.000  0.000  0.000  0.000
    2  0.000  0.000  0.000  0.000  0.000  0.000  0.000  0.000  0.000  0.000
    3  0.000  0.000  0.000  0.000  0.000  0.000  0.000  0.000  0.000  0.000
    4  0.136  0.000  0.000  0.000  0.000  0.000  0.000  0.000  0.000  0.136
    5  0.136  0.000  0.000  0.000  0.000  0.000  0.000  0.000  0.000  0.136
    6  0.050  0.000  0.000  0.000  0.000  0.000  0.000  0.000  0.000  0.051
    7  0.050  0.000  0.000  0.000  0.000  0.000  0.000  0.000  0.000  0.051
    8  0.050  0.000  0.000  0.000  0.000  0.000  0.000  0.000  0.000  0.051
    9  0.052  0.000  0.000  0.000  0.000  0.000  0.000  0.000  0.000  0.053
   10  0.052  0.000  0.000  0.000  0.000  0.000  0.000  0.000  0.000  0.053
   11  0.052  0.001  0.000  0.000  0.000  0.000  0.000  0.000  0.000  0.053
   12  0.052  0.000  0.000  0.000  0.000  0.000  0.000  0.000  0.000  0.053
   13  0.052  0.000  0.000  0.000  0.000  0.000  0.000  0.000  0.000  0.053
   14  0.052  0.001  0.000  0.000  0.000  0.000  0.000  0.000  0.000  0.053
tot    0.738  0.002  0.002  0.002  0.000  0.000  0.000  0.000  0.000  0.745
 
band     5 # energy  -11.01107007 # occ.  1.00000000
 
ion      s     py     pz     px    dxy    dyz    dz2    dxz  x2-y2    tot
    1  0.000  0.000  0.000  0.000  0.000  0.000  0.000  0.000  0.000  0.000
    2  0.000  0.000  0.000  0.000  0.000  0.000  0.000  0.000  0.000  0.000
    3  0.000  0.000  0.000  0.000  0.000  0.000  0.000  0.000  0.000  0.000
    4  0.137  0.000  0.002  0.000  0.000  0.000  0.000  0.000  0.000  0.140
    5  0.137  0.000  0.002  0.000  0.000  0.000  0.000  0.000  0.000  0.140
    6  0.000  0.000  0.000  0.000  0.000  0.000  0.000  0.000  0.000  0.001
    7  0.000  0.000  0.000  0.000  0.000  0.000  0.000  0.000  0.000  0.001
    8  0.000  0.000  0.000  0.000  0.000  0.000  0.000  0.000  0.000  0.001
    9  0.079  0.000  0.000  0.001  0.000  0.000  0.000  0.000  0.000  0.080
   10  0.079  0.000  0.000  0.001  0.000  0.000  0.000  0.000  0.000  0.080
   11  0.079  0.001  0.000  0.000  0.000  0.000  0.000  0.000  0.000  0.080
   12  0.079  0.000  0.000  0.001  0.000  0.000  0.000  0.000  0.000  0.080
   13  0.079  0.000  0.000  0.001  0.000  0.000  0.000  0.000  0.000  0.080
   14  0.079  0.001  0.000  0.000  0.000  0.000  0.000  0.000  0.000  0.080
tot    0.748  0.003  0.008  0.003  0.000  0.000  0.000  0.000  0.000  0.762
 
band     6 # energy  -10.32905962 # occ.  1.00000000
 
ion      s     py     pz     px    dxy    dyz    dz2    dxz  x2-y2    tot
    1  0.000  0.000  0.000  0.000  0.000  0.000  0.000  0.000  0.000  0.000
    2  0.000  0.000  0.000  0.000  0.000  0.000  0.000  0.000  0.000  0.000
    3  0.000  0.000  0.000  0.000  0.000  0.000  0.000  0.000  0.000  0.000
    4  0.001  0.000  0.006  0.000  0.000  0.000  0.000  0.000  0.000  0.007
    5  0.001  0.000  0.006  0.000  0.000  0.000  0.000  0.000  0.000  0.007
    6  0.155  0.000  0.000  0.000  0.000  0.000  0.000  0.000  0.000  0.155
    7  0.155  0.000  0.000  0.000  0.000  0.000  0.000  0.000  0.000  0.155
    8  0.155  0.000  0.000  0.000  0.000  0.000  0.000  0.000  0.000  0.155
    9  0.043  0.000  0.000  0.000  0.000  0.000  0.000  0.000  0.000  0.043
   10  0.043  0.000  0.000  0.000  0.000  0.000  0.000  0.000  0.000  0.043
   11  0.043  0.000  0.000  0.000  0.000  0.000  0.000  0.000  0.000  0.043
   12  0.043  0.000  0.000  0.000  0.000  0.000  0.000  0.000  0.000  0.043
   13  0.043  0.000  0.000  0.000  0.000  0.000  0.000  0.000  0.000  0.043
   14  0.043  0.000  0.000  0.000  0.000  0.000  0.000  0.000  0.000  0.043
tot    0.725  0.000  0.013  0.000  0.000  0.000  0.000  0.000  0.000  0.738
 
band     7 # energy  -10.23482168 # occ.  1.00000000
 
ion      s     py     pz     px    dxy    dyz    dz2    dxz  x2-y2    tot
    1  0.000  0.000  0.000  0.000  0.000  0.000  0.000  0.000  0.000  0.000
    2  0.000  0.000  0.000  0.000  0.000  0.000  0.000  0.000  0.000  0.000
    3  0.000  0.000  0.000  0.000  0.000  0.000  0.000  0.000  0.000  0.000
    4  0.000  0.001  0.000  0.004  0.000  0.000  0.000  0.000  0.000  0.006
    5  0.000  0.001  0.000  0.004  0.000  0.000  0.000  0.000  0.000  0.006
    6  0.000  0.000  0.000  0.000  0.000  0.000  0.000  0.000  0.000  0.000
    7  0.000  0.000  0.000  0.000  0.000  0.000  0.000  0.000  0.000  0.000
    8  0.000  0.000  0.000  0.000  0.000  0.000  0.000  0.000  0.000  0.000
    9  0.248  0.000  0.000  0.000  0.000  0.000  0.000  0.000  0.000  0.248
   10  0.062  0.000  0.000  0.000  0.000  0.000  0.000  0.000  0.000  0.062
   11  0.062  0.000  0.000  0.000  0.000  0.000  0.000  0.000  0.000  0.062
   12  0.248  0.000  0.000  0.000  0.000  0.000  0.000  0.000  0.000  0.248
   13  0.062  0.000  0.000  0.000  0.000  0.000  0.000  0.000  0.000  0.062
   14  0.062  0.000  0.000  0.000  0.000  0.000  0.000  0.000  0.000  0.062
tot    0.744  0.003  0.000  0.007  0.001  0.000  0.000  0.001  0.000  0.756
 
band     8 # energy  -10.23477261 # occ.  1.00000000
 
ion      s     py     pz     px    dxy    dyz    dz2    dxz  x2-y2    tot
    1  0.000  0.000  0.000  0.000  0.000  0.000  0.000  0.000  0.000  0.000
    2  0.000  0.000  0.000  0.000  0.000  0.000  0.000  0.000  0.000  0.000
    3  0.000  0.000  0.000  0.000  0.000  0.000  0.000  0.000  0.000  0.000
    4  0.000  0.004  0.000  0.001  0.000  0.000  0.000  0.000  0.000  0.006
    5  0.000  0.004  0.000  0.001  0.000  0.000  0.000  0.000  0.000  0.006
    6  0.000  0.000  0.000  0.000  0.000  0.000  0.000  0.000  0.000  0.000
    7  0.000  0.000  0.000  0.000  0.000  0.000  0.000  0.000  0.000  0.000
    8  0.000  0.000  0.000  0.000  0.000  0.000  0.000  0.000  0.000  0.000
    9  0.000  0.000  0.000  0.000  0.000  0.000  0.000  0.000  0.000  0.000
   10  0.186  0.000  0.000  0.000  0.000  0.000  0.000  0.000  0.000  0.186
   11  0.186  0.000  0.000  0.000  0.000  0.000  0.000  0.000  0.000  0.186
   12  0.000  0.000  0.000  0.000  0.000  0.000  0.000  0.000  0.000  0.000
   13  0.186  0.000  0.000  0.000  0.000  0.000  0.000  0.000  0.000  0.186
   14  0.186  0.000  0.000  0.000  0.000  0.000  0.000  0.000  0.000  0.186
tot    0.744  0.007  0.000  0.003  0.000  0.001  0.000  0.000  0.001  0.756
 
band     9 # energy  -10.22942570 # occ.  1.00000000
 
ion      s     py     pz     px    dxy    dyz    dz2    dxz  x2-y2    tot
    1  0.000  0.000  0.000  0.000  0.000  0.000  0.000  0.000  0.000  0.000
    2  0.000  0.000  0.000  0.000  0.000  0.000  0.000  0.000  0.000  0.000
    3  0.000  0.000  0.000  0.000  0.000  0.000  0.000  0.000  0.000  0.000
    4  0.000  0.005  0.000  0.002  0.000  0.000  0.000  0.000  0.000  0.007
    5  0.000  0.005  0.000  0.002  0.000  0.000  0.000  0.000  0.000  0.007
    6  0.119  0.000  0.000  0.000  0.000  0.000  0.000  0.000  0.000  0.119
    7  0.117  0.000  0.000  0.000  0.000  0.000  0.000  0.000  0.000  0.117
    8  0.000  0.000  0.000  0.000  0.000  0.000  0.000  0.000  0.000  0.000
    9  0.000  0.000  0.000  0.000  0.000  0.000  0.000  0.000  0.000  0.000
   10  0.126  0.000  0.000  0.000  0.000  0.000  0.000  0.000  0.000  0.127
   11  0.125  0.000  0.000  0.000  0.000  0.000  0.000  0.000  0.000  0.125
   12  0.000  0.000  0.000  0.000  0.000  0.000  0.000  0.000  0.000  0.000
   13  0.126  0.000  0.000  0.000  0.000  0.000  0.000  0.000  0.000  0.127
   14  0.125  0.000  0.000  0.000  0.000  0.000  0.000  0.000  0.000  0.125
tot    0.738  0.011  0.000  0.004  0.000  0.000  0.000  0.000  0.000  0.754
 
band    10 # energy  -10.22942052 # occ.  1.00000000
 
ion      s     py     pz     px    dxy    dyz    dz2    dxz  x2-y2    tot
    1  0.000  0.000  0.000  0.000  0.000  0.000  0.000  0.000  0.000  0.000
    2  0.000  0.000  0.000  0.000  0.000  0.000  0.000  0.000  0.000  0.000
    3  0.000  0.000  0.000  0.000  0.000  0.000  0.000  0.000  0.000  0.000
    4  0.000  0.002  0.000  0.005  0.000  0.000  0.000  0.000  0.000  0.007
    5  0.000  0.002  0.000  0.005  0.000  0.000  0.000  0.000  0.000  0.007
    6  0.038  0.000  0.000  0.000  0.000  0.000  0.000  0.000  0.000  0.038
    7  0.040  0.000  0.000  0.000  0.000  0.000  0.000  0.000  0.000  0.040
    8  0.158  0.000  0.000  0.000  0.000  0.000  0.000  0.000  0.000  0.158
    9  0.167  0.000  0.000  0.000  0.000  0.000  0.000  0.000  0.000  0.168
   10  0.041  0.000  0.000  0.000  0.000  0.000  0.000  0.000  0.000  0.041
   11  0.043  0.000  0.000  0.000  0.000  0.000  0.000  0.000  0.000  0.043
   12  0.167  0.000  0.000  0.000  0.000  0.000  0.000  0.000  0.000  0.168
   13  0.041  0.000  0.000  0.000  0.000  0.000  0.000  0.000  0.000  0.041
   14  0.043  0.000  0.000  0.000  0.000  0.000  0.000  0.000  0.000  0.043
tot    0.738  0.004  0.000  0.011  0.000  0.000  0.000  0.000  0.000  0.754
 
band    11 # energy  -10.04808038 # occ.  1.00000000
 
ion      s     py     pz     px    dxy    dyz    dz2    dxz  x2-y2    tot
    1  0.000  0.000  0.000  0.000  0.000  0.000  0.000  0.000  0.000  0.000
    2  0.000  0.000  0.000  0.000  0.000  0.000  0.000  0.000  0.000  0.000
    3  0.000  0.000  0.000  0.000  0.000  0.000  0.000  0.000  0.000  0.000
    4  0.000  0.000  0.000  0.000  0.000  0.001  0.000  0.000  0.000  0.001
    5  0.000  0.000  0.000  0.000  0.000  0.001  0.000  0.000  0.000  0.001
    6  0.256  0.000  0.000  0.000  0.000  0.000  0.000  0.000  0.000  0.256
    7  0.255  0.000  0.000  0.000  0.000  0.000  0.000  0.000  0.000  0.255
    8  0.000  0.000  0.000  0.000  0.000  0.000  0.000  0.000  0.000  0.000
    9  0.000  0.000  0.000  0.000  0.000  0.000  0.000  0.000  0.000  0.000
   10  0.062  0.000  0.000  0.000  0.000  0.000  0.000  0.000  0.000  0.062
   11  0.062  0.000  0.000  0.000  0.000  0.000  0.000  0.000  0.000  0.062
   12  0.000  0.000  0.000  0.000  0.000  0.000  0.000  0.000  0.000  0.000
   13  0.062  0.000  0.000  0.000  0.000  0.000  0.000  0.000  0.000  0.062
   14  0.062  0.000  0.000  0.000  0.000  0.000  0.000  0.000  0.000  0.062
tot    0.760  0.000  0.000  0.000  0.000  0.001  0.000  0.000  0.001  0.763
 
band    12 # energy  -10.04803244 # occ.  1.00000000
 
ion      s     py     pz     px    dxy    dyz    dz2    dxz  x2-y2    tot
    1  0.000  0.000  0.000  0.000  0.000  0.000  0.000  0.000  0.000  0.000
    2  0.000  0.000  0.000  0.000  0.000  0.000  0.000  0.000  0.000  0.000
    3  0.000  0.000  0.000  0.000  0.000  0.000  0.000  0.000  0.000  0.000
    4  0.000  0.000  0.000  0.000  0.000  0.000  0.000  0.001  0.000  0.001
    5  0.000  0.000  0.000  0.000  0.000  0.000  0.000  0.001  0.000  0.001
    6  0.085  0.000  0.000  0.000  0.000  0.000  0.000  0.000  0.000  0.085
    7  0.085  0.000  0.000  0.000  0.000  0.000  0.000  0.000  0.000  0.085
    8  0.341  0.000  0.000  0.000  0.000  0.000  0.000  0.000  0.000  0.341
    9  0.083  0.000  0.000  0.000  0.000  0.000  0.000  0.000  0.000  0.083
   10  0.021  0.000  0.000  0.000  0.000  0.000  0.000  0.000  0.000  0.021
   11  0.021  0.000  0.000  0.000  0.000  0.000  0.000  0.000  0.000  0.021
   12  0.083  0.000  0.000  0.000  0.000  0.000  0.000  0.000  0.000  0.083
   13  0.021  0.000  0.000  0.000  0.000  0.000  0.000  0.000  0.000  0.021
   14  0.021  0.000  0.000  0.000  0.000  0.000  0.000  0.000  0.000  0.021
tot    0.760  0.000  0.000  0.000  0.001  0.000  0.000  0.001  0.000  0.763
 
band    13 # energy   -8.69658359 # occ.  1.00000000
 
ion      s     py     pz     px    dxy    dyz    dz2    dxz  x2-y2    tot
    1  0.000  0.000  0.001  0.000  0.000  0.000  0.000  0.000  0.000  0.001
    2  0.000  0.000  0.000  0.000  0.000  0.000  0.000  0.000  0.000  0.000
    3  0.000  0.000  0.000  0.000  0.000  0.000  0.000  0.000  0.000  0.000
    4  0.271  0.000  0.001  0.000  0.000  0.000  0.000  0.000  0.000  0.272
    5  0.271  0.000  0.001  0.000  0.000  0.000  0.000  0.000  0.000  0.272
    6  0.000  0.001  0.001  0.002  0.000  0.000  0.000  0.000  0.000  0.004
    7  0.000  0.002  0.001  0.000  0.000  0.000  0.000  0.000  0.000  0.004
    8  0.000  0.001  0.001  0.002  0.000  0.000  0.000  0.000  0.000  0.004
    9  0.045  0.000  0.000  0.001  0.000  0.000  0.000  0.000  0.000  0.047
   10  0.045  0.000  0.000  0.001  0.000  0.000  0.000  0.000  0.000  0.047
   11  0.045  0.001  0.000  0.000  0.000  0.000  0.000  0.000  0.000  0.047
   12  0.045  0.000  0.000  0.001  0.000  0.000  0.000  0.000  0.000  0.047
   13  0.045  0.000  0.000  0.001  0.000  0.000  0.000  0.000  0.000  0.047
   14  0.045  0.001  0.000  0.000  0.000  0.000  0.000  0.000  0.000  0.047
tot    0.812  0.007  0.009  0.007  0.000  0.000  0.000  0.000  0.000  0.838
 
band    14 # energy   -8.31993972 # occ.  1.00000000
 
ion      s     py     pz     px    dxy    dyz    dz2    dxz  x2-y2    tot
    1  0.000  0.000  0.000  0.000  0.000  0.000  0.000  0.000  0.000  0.000
    2  0.000  0.000  0.000  0.000  0.000  0.000  0.000  0.000  0.000  0.000
    3  0.000  0.000  0.000  0.000  0.000  0.000  0.000  0.000  0.000  0.000
    4  0.284  0.000  0.000  0.000  0.000  0.000  0.000  0.000  0.000  0.284
    5  0.284  0.000  0.000  0.000  0.000  0.000  0.000  0.000  0.000  0.284
    6  0.038  0.000  0.000  0.000  0.000  0.000  0.000  0.000  0.000  0.038
    7  0.038  0.000  0.000  0.000  0.000  0.000  0.000  0.000  0.000  0.038
    8  0.038  0.000  0.000  0.000  0.000  0.000  0.000  0.000  0.000  0.038
    9  0.026  0.001  0.001  0.002  0.000  0.000  0.000  0.000  0.000  0.029
   10  0.026  0.001  0.001  0.002  0.000  0.000  0.000  0.000  0.000  0.029
   11  0.026  0.002  0.001  0.000  0.000  0.000  0.000  0.000  0.000  0.029
   12  0.026  0.001  0.001  0.002  0.000  0.000  0.000  0.000  0.000  0.029
   13  0.026  0.001  0.001  0.002  0.000  0.000  0.000  0.000  0.000  0.029
   14  0.026  0.002  0.001  0.000  0.000  0.000  0.000  0.000  0.000  0.029
tot    0.839  0.006  0.005  0.006  0.000  0.001  0.000  0.001  0.000  0.858
 
band    15 # energy   -6.59742844 # occ.  1.00000000
 
ion      s     py     pz     px    dxy    dyz    dz2    dxz  x2-y2    tot
    1  0.000  0.104  0.000  0.363  0.000  0.000  0.000  0.000  0.000  0.467
    2  0.000  0.034  0.000  0.118  0.000  0.000  0.000  0.000  0.000  0.152
    3  0.000  0.034  0.000  0.118  0.000  0.000  0.000  0.000  0.000  0.152
    4  0.000  0.000  0.000  0.000  0.000  0.000  0.000  0.000  0.000  0.000
    5  0.000  0.000  0.000  0.000  0.000  0.000  0.000  0.000  0.000  0.000
    6  0.000  0.000  0.000  0.000  0.000  0.000  0.000  0.000  0.000  0.000
    7  0.000  0.000  0.000  0.000  0.000  0.000  0.000  0.000  0.000  0.000
    8  0.000  0.000  0.000  0.000  0.000  0.000  0.000  0.000  0.000  0.000
    9  0.000  0.000  0.000  0.000  0.000  0.000  0.000  0.000  0.000  0.000
   10  0.000  0.000  0.000  0.000  0.000  0.000  0.000  0.000  0.000  0.000
   11  0.000  0.000  0.000  0.000  0.000  0.000  0.000  0.000  0.000  0.000
   12  0.000  0.000  0.000  0.000  0.000  0.000  0.000  0.000  0.000  0.000
   13  0.000  0.000  0.000  0.000  0.000  0.000  0.000  0.000  0.000  0.000
   14  0.000  0.000  0.000  0.000  0.000  0.000  0.000  0.000  0.000  0.000
tot    0.000  0.173  0.000  0.601  0.000  0.000  0.000  0.000  0.000  0.774
 
band    16 # energy   -6.59742407 # occ.  1.00000000
 
ion      s     py     pz     px    dxy    dyz    dz2    dxz  x2-y2    tot
    1  0.000  0.363  0.000  0.104  0.000  0.000  0.000  0.000  0.000  0.467
    2  0.000  0.119  0.000  0.034  0.000  0.000  0.000  0.000  0.000  0.153
    3  0.000  0.119  0.000  0.034  0.000  0.000  0.000  0.000  0.000  0.153
    4  0.000  0.000  0.000  0.000  0.000  0.000  0.000  0.000  0.000  0.000
    5  0.000  0.000  0.000  0.000  0.000  0.000  0.000  0.000  0.000  0.000
    6  0.000  0.000  0.000  0.000  0.000  0.000  0.000  0.000  0.000  0.000
    7  0.000  0.000  0.000  0.000  0.000  0.000  0.000  0.000  0.000  0.000
    8  0.000  0.000  0.000  0.000  0.000  0.000  0.000  0.000  0.000  0.000
    9  0.000  0.000  0.000  0.000  0.000  0.000  0.000  0.000  0.000  0.000
   10  0.000  0.000  0.000  0.000  0.000  0.000  0.000  0.000  0.000  0.000
   11  0.000  0.000  0.000  0.000  0.000  0.000  0.000  0.000  0.000  0.000
   12  0.000  0.000  0.000  0.000  0.000  0.000  0.000  0.000  0.000  0.000
   13  0.000  0.000  0.000  0.000  0.000  0.000  0.000  0.000  0.000  0.000
   14  0.000  0.000  0.000  0.000  0.000  0.000  0.000  0.000  0.000  0.000
tot    0.000  0.601  0.000  0.173  0.000  0.000  0.000  0.000  0.000  0.774
 
band    17 # energy   -6.59349002 # occ.  1.00000000
 
ion      s     py     pz     px    dxy    dyz    dz2    dxz  x2-y2    tot
    1  0.000  0.000  0.000  0.000  0.000  0.000  0.000  0.000  0.000  0.000
    2  0.000  0.283  0.000  0.103  0.000  0.000  0.000  0.000  0.000  0.386
    3  0.000  0.283  0.000  0.103  0.000  0.000  0.000  0.000  0.000  0.386
    4  0.000  0.000  0.000  0.000  0.000  0.000  0.000  0.000  0.000  0.000
    5  0.000  0.000  0.000  0.000  0.000  0.000  0.000  0.000  0.000  0.000
    6  0.000  0.000  0.000  0.000  0.000  0.000  0.000  0.000  0.000  0.000
    7  0.000  0.000  0.000  0.000  0.000  0.000  0.000  0.000  0.000  0.000
    8  0.000  0.000  0.000  0.000  0.000  0.000  0.000  0.000  0.000  0.000
    9  0.000  0.000  0.000  0.000  0.000  0.000  0.000  0.000  0.000  0.000
   10  0.000  0.000  0.000  0.000  0.000  0.000  0.000  0.000  0.000  0.000
   11  0.000  0.000  0.000  0.000  0.000  0.000  0.000  0.000  0.000  0.000
   12  0.000  0.000  0.000  0.000  0.000  0.000  0.000  0.000  0.000  0.000
   13  0.000  0.000  0.000  0.000  0.000  0.000  0.000  0.000  0.000  0.000
   14  0.000  0.000  0.000  0.000  0.000  0.000  0.000  0.000  0.000  0.000
tot    0.001  0.567  0.000  0.207  0.000  0.000  0.000  0.000  0.000  0.775
 
band    18 # energy   -6.59348282 # occ.  1.00000000
 
ion      s     py     pz     px    dxy    dyz    dz2    dxz  x2-y2    tot
    1  0.000  0.000  0.000  0.000  0.000  0.000  0.000  0.000  0.000  0.000
    2  0.000  0.103  0.000  0.283  0.000  0.000  0.000  0.000  0.000  0.386
    3  0.000  0.103  0.000  0.283  0.000  0.000  0.000  0.000  0.000  0.386
    4  0.000  0.000  0.000  0.000  0.000  0.000  0.000  0.000  0.000  0.000
    5  0.000  0.000  0.000  0.000  0.000  0.000  0.000  0.000  0.000  0.000
    6  0.000  0.000  0.000  0.000  0.000  0.000  0.000  0.000  0.000  0.000
    7  0.000  0.000  0.000  0.000  0.000  0.000  0.000  0.000  0.000  0.000
    8  0.000  0.000  0.000  0.000  0.000  0.000  0.000  0.000  0.000  0.000
    9  0.000  0.000  0.000  0.000  0.000  0.000  0.000  0.000  0.000  0.000
   10  0.000  0.000  0.000  0.000  0.000  0.000  0.000  0.000  0.000  0.000
   11  0.000  0.000  0.000  0.000  0.000  0.000  0.000  0.000  0.000  0.000
   12  0.000  0.000  0.000  0.000  0.000  0.000  0.000  0.000  0.000  0.000
   13  0.000  0.000  0.000  0.000  0.000  0.000  0.000  0.000  0.000  0.000
   14  0.000  0.000  0.000  0.000  0.000  0.000  0.000  0.000  0.000  0.000
tot    0.001  0.207  0.000  0.567  0.000  0.000  0.000  0.000  0.000  0.775
 
band    19 # energy   -6.58572830 # occ.  1.00000000
 
ion      s     py     pz     px    dxy    dyz    dz2    dxz  x2-y2    tot
    1  0.000  0.000  0.715  0.000  0.000  0.000  0.000  0.000  0.000  0.715
    2  0.000  0.000  0.030  0.000  0.000  0.000  0.000  0.000  0.000  0.030
    3  0.000  0.000  0.030  0.000  0.000  0.000  0.000  0.000  0.000  0.030
    4  0.000  0.000  0.000  0.000  0.000  0.000  0.000  0.000  0.000  0.000
    5  0.000  0.000  0.000  0.000  0.000  0.000  0.000  0.000  0.000  0.000
    6  0.000  0.000  0.000  0.000  0.000  0.000  0.000  0.000  0.000  0.000
    7  0.000  0.000  0.000  0.000  0.000  0.000  0.000  0.000  0.000  0.000
    8  0.000  0.000  0.000  0.000  0.000  0.000  0.000  0.000  0.000  0.000
    9  0.000  0.000  0.000  0.000  0.000  0.000  0.000  0.000  0.000  0.000
   10  0.000  0.000  0.000  0.000  0.000  0.000  0.000  0.000  0.000  0.000
   11  0.000  0.000  0.000  0.000  0.000  0.000  0.000  0.000  0.000  0.000
   12  0.000  0.000  0.000  0.000  0.000  0.000  0.000  0.000  0.000  0.000
   13  0.000  0.000  0.000  0.000  0.000  0.000  0.000  0.000  0.000  0.000
   14  0.000  0.000  0.000  0.000  0.000  0.000  0.000  0.000  0.000  0.000
tot    0.001  0.000  0.776  0.000  0.000  0.000  0.000  0.000  0.000  0.778
 
band    20 # energy   -6.58550292 # occ.  1.00000000
 
ion      s     py     pz     px    dxy    dyz    dz2    dxz  x2-y2    tot
    1  0.000  0.009  0.000  0.297  0.000  0.000  0.000  0.000  0.000  0.306
    2  0.000  0.007  0.000  0.227  0.000  0.000  0.000  0.000  0.000  0.234
    3  0.000  0.007  0.000  0.227  0.000  0.000  0.000  0.000  0.000  0.234
    4  0.000  0.000  0.000  0.000  0.000  0.000  0.000  0.000  0.000  0.000
    5  0.000  0.000  0.000  0.000  0.000  0.000  0.000  0.000  0.000  0.000
    6  0.000  0.000  0.000  0.000  0.000  0.000  0.000  0.000  0.000  0.000
    7  0.000  0.000  0.000  0.000  0.000  0.000  0.000  0.000  0.000  0.000
    8  0.000  0.000  0.000  0.000  0.000  0.000  0.000  0.000  0.000  0.000
    9  0.000  0.000  0.000  0.000  0.000  0.000  0.000  0.000  0.000  0.000
   10  0.000  0.000  0.000  0.000  0.000  0.000  0.000  0.000  0.000  0.000
   11  0.000  0.000  0.000  0.000  0.000  0.000  0.000  0.000  0.000  0.000
   12  0.000  0.000  0.000  0.000  0.000  0.000  0.000  0.000  0.000  0.000
   13  0.000  0.000  0.000  0.000  0.000  0.000  0.000  0.000  0.000  0.000
   14  0.000  0.000  0.000  0.000  0.000  0.000  0.000  0.000  0.000  0.000
tot    0.000  0.024  0.000  0.752  0.000  0.000  0.000  0.000  0.000  0.777
 
band    21 # energy   -6.58550248 # occ.  1.00000000
 
ion      s     py     pz     px    dxy    dyz    dz2    dxz  x2-y2    tot
    1  0.000  0.297  0.000  0.010  0.000  0.000  0.000  0.000  0.000  0.307
    2  0.000  0.227  0.000  0.007  0.000  0.000  0.000  0.000  0.000  0.234
    3  0.000  0.227  0.000  0.007  0.000  0.000  0.000  0.000  0.000  0.234
    4  0.000  0.000  0.000  0.000  0.000  0.000  0.000  0.000  0.000  0.000
    5  0.000  0.000  0.000  0.000  0.000  0.000  0.000  0.000  0.000  0.000
    6  0.000  0.000  0.000  0.000  0.000  0.000  0.000  0.000  0.000  0.000
    7  0.000  0.000  0.000  0.000  0.000  0.000  0.000  0.000  0.000  0.000
    8  0.000  0.000  0.000  0.000  0.000  0.000  0.000  0.000  0.000  0.000
    9  0.000  0.000  0.000  0.000  0.000  0.000  0.000  0.000  0.000  0.000
   10  0.000  0.000  0.000  0.000  0.000  0.000  0.000  0.000  0.000  0.000
   11  0.000  0.000  0.000  0.000  0.000  0.000  0.000  0.000  0.000  0.000
   12  0.000  0.000  0.000  0.000  0.000  0.000  0.000  0.000  0.000  0.000
   13  0.000  0.000  0.000  0.000  0.000  0.000  0.000  0.000  0.000  0.000
   14  0.000  0.000  0.000  0.000  0.000  0.000  0.000  0.000  0.000  0.000
tot    0.000  0.752  0.000  0.024  0.000  0.000  0.000  0.000  0.000  0.777
 
band    22 # energy   -6.58454275 # occ.  1.00000000
 
ion      s     py     pz     px    dxy    dyz    dz2    dxz  x2-y2    tot
    1  0.000  0.000  0.061  0.000  0.000  0.000  0.000  0.000  0.000  0.061
    2  0.000  0.000  0.357  0.000  0.000  0.000  0.000  0.000  0.000  0.357
    3  0.000  0.000  0.357  0.000  0.000  0.000  0.000  0.000  0.000  0.357
    4  0.000  0.000  0.000  0.000  0.000  0.000  0.000  0.000  0.000  0.000
    5  0.000  0.000  0.000  0.000  0.000  0.000  0.000  0.000  0.000  0.000
    6  0.000  0.000  0.000  0.000  0.000  0.000  0.000  0.000  0.000  0.000
    7  0.000  0.000  0.000  0.000  0.000  0.000  0.000  0.000  0.000  0.000
    8  0.000  0.000  0.000  0.000  0.000  0.000  0.000  0.000  0.000  0.000
    9  0.000  0.000  0.000  0.000  0.000  0.000  0.000  0.000  0.000  0.000
   10  0.000  0.000  0.000  0.000  0.000  0.000  0.000  0.000  0.000  0.000
   11  0.000  0.000  0.000  0.000  0.000  0.000  0.000  0.000  0.000  0.000
   12  0.000  0.000  0.000  0.000  0.000  0.000  0.000  0.000  0.000  0.000
   13  0.000  0.000  0.000  0.000  0.000  0.000  0.000  0.000  0.000  0.000
   14  0.000  0.000  0.000  0.000  0.000  0.000  0.000  0.000  0.000  0.000
tot    0.001  0.000  0.775  0.000  0.000  0.000  0.000  0.000  0.000  0.777
 
band    23 # energy   -6.57705198 # occ.  1.00000000
 
ion      s     py     pz     px    dxy    dyz    dz2    dxz  x2-y2    tot
    1  0.000  0.000  0.000  0.000  0.000  0.000  0.000  0.000  0.000  0.000
    2  0.000  0.000  0.388  0.000  0.000  0.000  0.000  0.000  0.000  0.388
    3  0.000  0.000  0.388  0.000  0.000  0.000  0.000  0.000  0.000  0.388
    4  0.000  0.000  0.000  0.000  0.000  0.000  0.000  0.000  0.000  0.000
    5  0.000  0.000  0.000  0.000  0.000  0.000  0.000  0.000  0.000  0.000
    6  0.001  0.000  0.000  0.000  0.000  0.000  0.000  0.000  0.000  0.001
    7  0.001  0.000  0.000  0.000  0.000  0.000  0.000  0.000  0.000  0.001
    8  0.001  0.000  0.000  0.000  0.000  0.000  0.000  0.000  0.000  0.001
    9  0.000  0.000  0.000  0.000  0.000  0.000  0.000  0.000  0.000  0.000
   10  0.000  0.000  0.000  0.000  0.000  0.000  0.000  0.000  0.000  0.000
   11  0.000  0.000  0.000  0.000  0.000  0.000  0.000  0.000  0.000  0.000
   12  0.000  0.000  0.000  0.000  0.000  0.000  0.000  0.000  0.000  0.000
   13  0.000  0.000  0.000  0.000  0.000  0.000  0.000  0.000  0.000  0.000
   14  0.000  0.000  0.000  0.000  0.000  0.000  0.000  0.000  0.000  0.000
tot    0.002  0.000  0.776  0.000  0.000  0.000  0.000  0.000  0.000  0.779
 
band    24 # energy   -2.35710480 # occ.  1.00000000
 
ion      s     py     pz     px    dxy    dyz    dz2    dxz  x2-y2    tot
    1  0.000  0.000  0.002  0.000  0.000  0.000  0.000  0.000  0.000  0.002
    2  0.000  0.000  0.001  0.000  0.000  0.000  0.000  0.000  0.000  0.001
    3  0.000  0.000  0.001  0.000  0.000  0.000  0.000  0.000  0.000  0.001
    4  0.001  0.000  0.107  0.000  0.000  0.000  0.000  0.000  0.000  0.108
    5  0.001  0.000  0.107  0.000  0.000  0.000  0.000  0.000  0.000  0.108
    6  0.000  0.013  0.007  0.038  0.000  0.000  0.000  0.000  0.000  0.058