<?xml version="1.0" encoding="ISO-8859-1"?>
<modeling>
 <generator>
  <i name="program" type="string">vasp </i>
  <i name="version" type="string">5.4.4.18Apr17-6-g9f103f2a35  </i>
  <i name="subversion" type="string">(build Sep 07 2018 17:00:30) complex            parallel </i>
  <i name="platform" type="string">IFC18_ompi </i>
  <i name="date" type="string">2021 04 05 </i>
  <i name="time" type="string">21:01:31 </i>
 </generator>
 <incar>
  <i type="string" name="PREC">accurate</i>
  <i type="string" name="ALGO"> Fast</i>
  <i type="int" name="ISPIN">     2</i>
  <i type="int" name="ICHARG">    11</i>
  <i type="int" name="NELM">   100</i>
  <i type="int" name="IBRION">     2</i>
  <i name="EDIFF">      0.00000100</i>
  <i type="int" name="NSW">     0</i>
  <i type="int" name="ISIF">     3</i>
  <i name="ENCUT">    520.00000000</i>
  <v name="MAGMOM">      0.60000000      0.60000000      0.60000000      0.60000000      0.60000000      0.60000000      0.60000000      0.60000000      0.60000000      0.60000000      0.60000000      0.60000000      0.60000000      0.60000000</v>
  <i type="string" name="LREAL"> Auto</i>
  <i type="int" name="ISMEAR">    -5</i>
  <i name="SIGMA">      0.20000000</i>
  <i type="logical" name="LWAVE"> F  </i>
  <i type="logical" name="LCHARG"> F  </i>
  <i type="int" name="LORBIT">    11</i>
  <i type="logical" name="LASPH"> T  </i>
  <i type="logical" name="GGA_COMPAT"> F  </i>
  <v type="int" name="KPOINT_BSE">    -1     0     0     0</v>
  <i type="int" name="NELM">   100</i>
  <i type="logical" name="LASPH"> T  </i>
 </incar>
 <structure name="primitive_cell" >
  <crystal>
   <varray name="basis" >
    <v>       8.72996100       0.00000000       0.00000000 </v>
    <v>      -4.36498100       7.56036800       0.00000000 </v>
    <v>       0.00000000       0.00000000      10.81646900 </v>
   </varray>
   <i name="volume">    713.90553438 </i>
   <varray name="rec_basis" >
    <v>       0.11454805       0.06613435       0.00000000 </v>
    <v>       0.00000000       0.13226869       0.00000000 </v>
    <v>       0.00000000       0.00000000       0.09245161 </v>
   </varray>
  </crystal>
  <varray name="positions" >
   <v>       0.00000000       0.00000000       0.00000000 </v>
   <v>      -0.50000000      -0.50000000       0.00000000 </v>
   <v>      -0.50000000       0.00000000       0.00000000 </v>
   <v>       0.00000000      -0.50000000       0.00000000 </v>
   <v>       0.16502400      -0.16502400      -0.33753400 </v>
   <v>      -0.16502400       0.16502400       0.33753400 </v>
   <v>      -0.33004900      -0.16502400      -0.33753400 </v>
   <v>       0.33004900       0.16502400       0.33753400 </v>
   <v>       0.16502400       0.33004900      -0.33753400 </v>
   <v>      -0.16502400      -0.33004900       0.33753400 </v>
   <v>       0.33333300      -0.33333300      -0.19248200 </v>
   <v>      -0.33333300       0.33333300       0.19248200 </v>
   <v>       0.33333300      -0.33333300       0.32532400 </v>
   <v>      -0.33333300       0.33333300      -0.32532400 </v>
  </varray>
 </structure>
 <varray name="primitive_index" >
  <v type="int" >        1 </v>
  <v type="int" >        8 </v>
  <v type="int" >        7 </v>
  <v type="int" >        6 </v>
  <v type="int" >        9 </v>
  <v type="int" >       12 </v>
  <v type="int" >       10 </v>
  <v type="int" >       13 </v>
  <v type="int" >       11 </v>
  <v type="int" >       14 </v>
  <v type="int" >        4 </v>
  <v type="int" >        5 </v>
  <v type="int" >        2 </v>
  <v type="int" >        3 </v>
 </varray>
 <kpoints>
  <generation param="Gamma">
   <v type="int" name="divisions">       3        3        2 </v>
   <v name="usershift">      0.00000000       0.00000000       0.00000000 </v>
   <v name="genvec1">      0.33333333       0.00000000       0.00000000 </v>
   <v name="genvec2">      0.00000000       0.33333333       0.00000000 </v>
   <v name="genvec3">      0.00000000       0.00000000       0.50000000 </v>
   <v name="shift">      0.00000000       0.00000000       0.00000000 </v>
  </generation>
  <varray name="kpointlist" >
   <v>       0.00000000       0.00000000       0.00000000 </v>
   <v>       0.33333333      -0.00000000       0.00000000 </v>
   <v>       0.33333333       0.33333333       0.00000000 </v>
   <v>       0.00000000       0.00000000       0.50000000 </v>
   <v>       0.33333333      -0.00000000       0.50000000 </v>
   <v>       0.33333333       0.33333333       0.50000000 </v>
  </varray>
  <varray name="weights" >
   <v>       0.05555556 </v>
   <v>       0.33333333 </v>
   <v>       0.11111111 </v>
   <v>       0.05555556 </v>
   <v>       0.33333333 </v>
   <v>       0.11111111 </v>
  </varray>
  <varray name="tetrahedronlist"  type="int" >
   <v type="int" >       16        2        2        3        5 </v>
   <v type="int" >        8        1        2        2        5 </v>
   <v type="int" >        4        1        2        4        5 </v>
   <v type="int" >        8        2        3        5        6 </v>
   <v type="int" >       16        2        5        5        6 </v>
   <v type="int" >        8        2        4        5        5 </v>
   <v type="int" >        8        2        2        3        6 </v>
   <v type="int" >        8        2        2        5        6 </v>
   <v type="int" >        4        1        2        5        5 </v>
   <v type="int" >        4        1        4        5        5 </v>
   <v type="int" >        8        2        3        5        5 </v>
   <v type="int" >        8        3        5        5        6 </v>
   <v type="int" >        4        1        2        2        4 </v>
   <v type="int" >        4        2        2        4        5 </v>
  </varray>
  <i name="volumeweight">      0.00925926 </i>
 </kpoints>
 <parameters>
  <separator name="general" >
   <i type="string" name="SYSTEM">unknown system</i>
   <i type="logical" name="LCOMPAT"> F  </i>
  </separator>
  <separator name="electronic" >
   <i type="string" name="PREC">accura</i>
   <i name="ENMAX">    520.00000000</i>
   <i name="ENAUG">    407.93300000</i>
   <i name="EDIFF">      0.00000100</i>
   <i type="int" name="IALGO">    68</i>
   <i type="int" name="IWAVPR">    10</i>
   <i type="int" name="NBANDS">    96</i>
   <i name="NELECT">    100.00000000</i>
   <i type="int" name="TURBO">     0</i>
   <i type="int" name="IRESTART">     0</i>
   <i type="int" name="NREBOOT">     0</i>
   <i type="int" name="NMIN">     0</i>
   <i name="EREF">      0.00000000</i>
   <separator name="electronic smearing" >
    <i type="int" name="ISMEAR">    -5</i>
    <i name="SIGMA">      0.20000000</i>
    <i name="KSPACING">      0.50000000</i>
    <i type="logical" name="KGAMMA"> T  </i>
   </separator>
   <separator name="electronic projectors" >
    <i type="logical" name="LREAL"> T  </i>
    <v name="ROPT">     -0.00025000     -0.00025000     -0.00025000</v>
    <i type="int" name="LMAXPAW">  -100</i>
    <i type="int" name="LMAXMIX">     2</i>
    <i type="logical" name="NLSPLINE"> F  </i>
   </separator>
   <separator name="electronic startup" >
    <i type="int" name="ISTART">     0</i>
    <i type="int" name="ICHARG">    11</i>
    <i type="int" name="INIWAV">     1</i>
   </separator>
   <separator name="electronic spin" >
    <i type="int" name="ISPIN">     2</i>
    <i type="logical" name="LNONCOLLINEAR"> F  </i>
    <v name="MAGMOM">      0.60000000      0.60000000      0.60000000      0.60000000      0.60000000      0.60000000      0.60000000      0.60000000      0.60000000      0.60000000      0.60000000      0.60000000      0.60000000      0.60000000</v>
    <i name="NUPDOWN">     -1.00000000</i>
    <i type="logical" name="LSORBIT"> F  </i>
    <v name="SAXIS">      0.00000000      0.00000000      1.00000000</v>
    <i type="logical" name="LSPIRAL"> F  </i>
    <v name="QSPIRAL">      0.00000000      0.00000000      0.00000000</v>
    <i type="logical" name="LZEROZ"> F  </i>
   </separator>
   <separator name="electronic exchange-correlation" >
    <i type="logical" name="LASPH"> T  </i>
    <i type="logical" name="LMETAGGA"> F  </i>
   </separator>
   <separator name="electronic convergence" >
    <i type="int" name="NELM">   100</i>
    <i type="int" name="NELMDL">    -5</i>
    <i type="int" name="NELMIN">     2</i>
    <i name="ENINI">    520.00000000</i>
    <separator name="electronic convergence detail" >
     <i type="logical" name="LDIAG"> T  </i>
     <i type="logical" name="LSUBROT"> F  </i>
     <i name="WEIMIN">      0.00000000</i>
     <i name="EBREAK">      0.00000000</i>
     <i name="DEPER">      0.30000000</i>
     <i type="int" name="NRMM">     4</i>
     <i name="TIME">      0.40000000</i>
    </separator>
   </separator>
   <separator name="electronic mixer" >
    <i name="AMIX">      0.40000000</i>
    <i name="BMIX">      1.00000000</i>
    <i name="AMIN">      0.10000000</i>
    <i name="AMIX_MAG">      1.60000000</i>
    <i name="BMIX_MAG">      1.00000000</i>
    <separator name="electronic mixer details" >
     <i type="int" name="IMIX">     4</i>
     <i type="logical" name="MIXFIRST"> F  </i>
     <i type="int" name="MAXMIX">   -45</i>
     <i name="WC">    100.00000000</i>
     <i type="int" name="INIMIX">     1</i>
     <i type="int" name="MIXPRE">     1</i>
     <i type="int" name="MREMOVE">     5</i>
    </separator>
   </separator>
   <separator name="electronic dipolcorrection" >
    <i type="logical" name="LDIPOL"> F  </i>
    <i type="logical" name="LMONO"> F  </i>
    <i type="int" name="IDIPOL">     0</i>
    <i name="EPSILON">      1.00000000</i>
    <v name="DIPOL">   -100.00000000   -100.00000000   -100.00000000</v>
    <i name="EFIELD">      0.00000000</i>
   </separator>
  </separator>
  <separator name="grids" >
   <i type="int" name="NGX">    70</i>
   <i type="int" name="NGY">    70</i>
   <i type="int" name="NGZ">    80</i>
   <i type="int" name="NGXF">   140</i>
   <i type="int" name="NGYF">   140</i>
   <i type="int" name="NGZF">   160</i>
   <i type="logical" name="ADDGRID"> F  </i>
  </separator>
  <separator name="ionic" >
   <i type="int" name="NSW">     0</i>
   <i type="int" name="IBRION">    -1</i>
   <i type="int" name="MDALGO">     0</i>
   <i type="int" name="ISIF">     3</i>
   <i name="PSTRESS">      0.00000000</i>
   <i name="EDIFFG">      0.00001000</i>
   <i type="int" name="NFREE">     1</i>
   <i name="POTIM">      0.50000000</i>
   <i name="SMASS">     -3.00000000</i>
   <i name="SCALEE">      1.00000000</i>
  </separator>
  <separator name="ionic md" >
   <i name="TEBEG">      0.00010000</i>
   <i name="TEEND">      0.00010000</i>
   <i type="int" name="NBLOCK">     1</i>
   <i type="int" name="KBLOCK">     1</i>
   <i type="int" name="NPACO">   256</i>
   <i name="APACO">     16.00000000</i>
  </separator>
  <separator name="symmetry" >
   <i type="int" name="ISYM">     2</i>
   <i name="SYMPREC">      0.00001000</i>
  </separator>
  <separator name="dos" >
   <i type="int" name="LORBIT">    11</i>
   <v name="RWIGS">     -1.00000000     -1.00000000     -1.00000000</v>
   <i type="int" name="NEDOS">   301</i>
   <i name="EMIN">     10.00000000</i>
   <i name="EMAX">    -10.00000000</i>
   <i name="EFERMI">      0.00000000</i>
  </separator>
  <separator name="writing" >
   <i type="int" name="NWRITE">     2</i>
   <i type="logical" name="LWAVE"> F  </i>
   <i type="logical" name="LDOWNSAMPLE"> F  </i>
   <i type="logical" name="LCHARG"> F  </i>
   <i type="logical" name="LPARD"> F  </i>
   <i type="logical" name="LVTOT"> F  </i>
   <i type="logical" name="LVHAR"> F  </i>
   <i type="logical" name="LELF"> F  </i>
   <i type="logical" name="LOPTICS"> F  </i>
   <v name="STM">      0.00000000      0.00000000      0.00000000      0.00000000      0.00000000      0.00000000      0.00000000</v>
  </separator>
  <separator name="performance" >
   <i type="int" name="NPAR">    48</i>
   <i type="int" name="NSIM">     4</i>
   <i type="int" name="NBLK">    -1</i>
   <i type="logical" name="LPLANE"> T  </i>
   <i type="logical" name="LSCALAPACK"> T  </i>
   <i type="logical" name="LSCAAWARE"> F  </i>
   <i type="logical" name="LSCALU"> F  </i>
   <i type="logical" name="LASYNC"> F  </i>
   <i type="logical" name="LORBITALREAL"> F  </i>
  </separator>
  <separator name="miscellaneous" >
   <i type="int" name="IDIOT">     3</i>
   <i type="int" name="ISPECIAL">     0</i>
   <i type="logical" name="LMUSIC"> F  </i>
   <v name="POMASS">    132.90000000    208.98000000    126.90400000</v>
   <v name="DARWINR">      0.00000000      0.00000000      0.00000000</v>
   <v name="DARWINV">      1.00000000      1.00000000      1.00000000</v>
   <i type="logical" name="LCORR"> T  </i>
  </separator>
  <i type="logical" name="GGA_COMPAT"> F  </i>
  <i type="logical" name="LBERRY"> F  </i>
  <i type="int" name="ICORELEVEL">     0</i>
  <i type="logical" name="LDAU"> F  </i>
  <i type="int" name="I_CONSTRAINED_M">     0</i>
  <separator name="electronic exchange-correlation" >
   <i type="string" name="GGA">--</i>
   <i type="int" name="VOSKOWN">     0</i>
   <i type="logical" name="LHFCALC"> F  </i>
   <i type="string" name="PRECFOCK"></i>
   <i type="logical" name="LSYMGRAD"> F  </i>
   <i type="logical" name="LHFONE"> F  </i>
   <i type="logical" name="LRHFCALC"> F  </i>
   <i type="logical" name="LTHOMAS"> F  </i>
   <i type="logical" name="LMODELHF"> F  </i>
   <i name="ENCUT4O">     -1.00000000</i>
   <i type="int" name="EXXOEP">     0</i>
   <i type="int" name="FOURORBIT">     0</i>
   <i name="AEXX">      0.00000000</i>
   <i name="HFALPHA">      0.00000000</i>
   <i name="MCALPHA">      0.00000000</i>
   <i name="ALDAX">      1.00000000</i>
   <i name="AGGAX">      1.00000000</i>
   <i name="ALDAC">      1.00000000</i>
   <i name="AGGAC">      1.00000000</i>
   <i type="int" name="NKREDX">     1</i>
   <i type="int" name="NKREDY">     1</i>
   <i type="int" name="NKREDZ">     1</i>
   <i type="logical" name="SHIFTRED"> F  </i>
   <i type="logical" name="ODDONLY"> F  </i>
   <i type="logical" name="EVENONLY"> F  </i>
   <i type="int" name="LMAXFOCK">     0</i>
   <i type="int" name="NMAXFOCKAE">     0</i>
   <i type="logical" name="LFOCKAEDFT"> F  </i>
   <i name="HFSCREEN">      0.00000000</i>
   <i name="HFSCREENC">      0.00000000</i>
   <i type="int" name="NBANDSGWLOW">     0</i>
  </separator>
  <separator name="vdW DFT" >
   <i type="logical" name="LUSE_VDW"> F  </i>
   <i name="Zab_VDW">     -0.84910000</i>
   <i name="PARAM1">      0.12340000</i>
   <i name="PARAM2">      1.00000000</i>
   <i name="PARAM3">      0.00000000</i>
  </separator>
  <separator name="model GW" >
   <i type="int" name="MODEL_GW">     0</i>
   <i name="MODEL_EPS0">     30.59595147</i>
   <i name="MODEL_ALPHA">      1.00000000</i>
  </separator>
  <separator name="linear response parameters" >
   <i type="logical" name="LEPSILON"> F  </i>
   <i type="logical" name="LRPA"> F  </i>
   <i type="logical" name="LNABLA"> F  </i>
   <i type="logical" name="LVEL"> F  </i>
   <i type="int" name="KINTER">     0</i>
   <i name="CSHIFT">      0.10000000</i>
   <i name="OMEGAMAX">     -1.00000000</i>
   <i name="DEG_THRESHOLD">      0.00200000</i>
   <i name="RTIME">     -0.10000000</i>
   <i name="WPLASMAI">      0.00000000</i>
   <v name="DFIELD">      0.00000000      0.00000000      0.00000000</v>
   <v name="WPLASMA">      0.00000000      0.00000000      0.00000000      0.00000000      0.00000000      0.00000000      0.00000000      0.00000000      0.00000000</v>
  </separator>
  <separator name="orbital magnetization" >
   <i type="logical" name="NUCIND"> F  </i>
   <v name="MAGPOS">      0.00000000      0.00000000      0.00000000</v>
   <i type="logical" name="LNICSALL"> T  </i>
   <i type="logical" name="ORBITALMAG"> F  </i>
   <i type="logical" name="LMAGBLOCH"> F  </i>
   <i type="logical" name="LCHIMAG"> F  </i>
   <i type="logical" name="LGAUGE"> T  </i>
   <i type="int" name="MAGATOM">     0</i>
   <v name="MAGDIPOL">      0.00000000      0.00000000      0.00000000</v>
   <v name="AVECCONST">      0.00000000      0.00000000      0.00000000</v>
  </separator>
  <separator name="response functions" >
   <i type="logical" name="LADDER"> F  </i>
   <i type="logical" name="LRPAFORCE"> F  </i>
   <i type="logical" name="LFXC"> F  </i>
   <i type="logical" name="LHARTREE"> T  </i>
   <i type="int" name="IBSE">     0</i>
   <v type="int" name="KPOINT">    -1     0     0     0</v>
   <i type="logical" name="LTCTE"> F  </i>
   <i type="logical" name="LTETE"> F  </i>
   <i type="logical" name="LTRIPLET"> F  </i>
   <i type="logical" name="LFXCEPS"> F  </i>
   <i type="logical" name="LFXHEG"> F  </i>
   <i type="int" name="NATURALO">     2</i>
   <i type="logical" name="L2ORDER"> F  </i>
   <i type="logical" name="LMP2LT"> F  </i>
   <i type="logical" name="LUSEW"> F  </i>
   <i name="ENCUTGW">     -2.00000000</i>
   <i name="ENCUTGWSOFT">     -2.00000000</i>
   <i name="ENCUTLF">     -1.00000000</i>
   <i type="int" name="LMAXMP2">    -1</i>
   <i name="SCISSOR">      0.00000000</i>
   <i type="int" name="NOMEGA">     0</i>
   <i type="int" name="NOMEGAR">     0</i>
   <i type="int" name="NBANDSGW">    -1</i>
   <i type="int" name="NBANDSO">    -1</i>
   <i type="int" name="NBANDSV">    -1</i>
   <i type="int" name="NELM">   100</i>
   <i type="int" name="NELMHF">     1</i>
   <i type="int" name="DIM">     3</i>
   <i type="int" name="ANTIRES">     0</i>
   <i name="OMEGAMAX">    -30.00000000</i>
   <i name="OMEGAMIN">    -30.00000000</i>
   <i name="OMEGATL">   -200.00000000</i>
   <i type="int" name="OMEGAGRID">   140</i>
   <i name="CSHIFT">     -0.10000000</i>
   <i type="logical" name="SELFENERGY"> F  </i>
   <i type="logical" name="LSPECTRAL"> F  </i>
   <i type="logical" name="LSPECTRALGW"> F  </i>
   <i type="logical" name="LSINGLES"> F  </i>
   <i type="logical" name="LFERMIGW"> F  </i>
   <i type="logical" name="ODDONLYGW"> F  </i>
   <i type="logical" name="EVENONLYGW"> F  </i>
   <i type="int" name="NKREDLFX">     1</i>
   <i type="int" name="NKREDLFY">     1</i>
   <i type="int" name="NKREDLFZ">     1</i>
   <i type="int" name="MAXMEM">  2800</i>
   <i type="int" name="TELESCOPE">     0</i>
   <i type="int" name="TAUPAR">     1</i>
   <i type="int" name="OMEGAPAR">    -1</i>
   <i name="LAMBDA">      1.00000000</i>
  </separator>
  <separator name="External order field" >
   <i name="OFIELD_KAPPA">      0.00000000</i>
   <v name="OFIELD_K">      0.00000000      0.00000000      0.00000000</v>
   <i name="OFIELD_Q6_NEAR">      0.00000000</i>
   <i name="OFIELD_Q6_FAR">      0.00000000</i>
   <i name="OFIELD_A">      0.00000000</i>
  </separator>
 </parameters>
 <atominfo>
  <atoms>      14 </atoms>
  <types>       3 </types>
  <array name="atoms" >
   <dimension dim="1">ion</dimension>
   <field type="string">element</field>
   <field type="int">atomtype</field>
   <set>
    <rc><c>Cs</c><c>   1</c></rc>
    <rc><c>Cs</c><c>   1</c></rc>
    <rc><c>Cs</c><c>   1</c></rc>
    <rc><c>Bi</c><c>   2</c></rc>
    <rc><c>Bi</c><c>   2</c></rc>
    <rc><c>I </c><c>   3</c></rc>
    <rc><c>I </c><c>   3</c></rc>
    <rc><c>I </c><c>   3</c></rc>
    <rc><c>I </c><c>   3</c></rc>
    <rc><c>I </c><c>   3</c></rc>
    <rc><c>I </c><c>   3</c></rc>
    <rc><c>I </c><c>   3</c></rc>
    <rc><c>I </c><c>   3</c></rc>
    <rc><c>I </c><c>   3</c></rc>
   </set>
  </array>
  <array name="atomtypes" >
   <dimension dim="1">type</dimension>
   <field type="int">atomspertype</field>
   <field type="string">element</field>
   <field>mass</field>
   <field>valence</field>
   <field type="string">pseudopotential</field>
   <set>
    <rc><c>   3</c><c>Cs</c><c>    132.90000000</c><c>      9.00000000</c><c>  PAW_PBE Cs_sv 08Apr2002               </c></rc>
    <rc><c>   2</c><c>Bi</c><c>    208.98000000</c><c>      5.00000000</c><c>  PAW_PBE Bi 08Apr2002                  </c></rc>
    <rc><c>   9</c><c>I </c><c>    126.90400000</c><c>      7.00000000</c><c>  PAW_PBE I 08Apr2002                   </c></rc>
   </set>
  </array>
 </atominfo>
 <structure name="initialpos" >
  <crystal>
   <varray name="basis" >
    <v>       8.72996100       0.00000000       0.00000000 </v>
    <v>      -4.36498100       7.56036800       0.00000000 </v>
    <v>       0.00000000       0.00000000      10.81646900 </v>
   </varray>
   <i name="volume">    713.90553438 </i>
   <varray name="rec_basis" >
    <v>       0.11454805       0.06613435       0.00000000 </v>
    <v>       0.00000000       0.13226869       0.00000000 </v>
    <v>       0.00000000       0.00000000       0.09245161 </v>
   </varray>
  </crystal>
  <varray name="positions" >
   <v>       0.00000000       0.00000000       0.00000000 </v>
   <v>       0.33333300       0.66666700       0.32532400 </v>
   <v>       0.66666700       0.33333300       0.67467600 </v>
   <v>       0.33333300       0.66666700       0.80751800 </v>
   <v>       0.66666700       0.33333300       0.19248200 </v>
   <v>       0.00000000       0.50000000       0.00000000 </v>
   <v>       0.50000000       0.00000000       0.00000000 </v>
   <v>       0.50000000       0.50000000       0.00000000 </v>
   <v>       0.16502400       0.83497600       0.66246600 </v>
   <v>       0.66995100       0.83497600       0.66246600 </v>
   <v>       0.16502400       0.33004900       0.66246600 </v>
   <v>       0.83497600       0.16502400       0.33753400 </v>
   <v>       0.33004900       0.16502400       0.33753400 </v>
   <v>       0.83497600       0.66995100       0.33753400 </v>
  </varray>
 </structure>
 <calculation>
  <scstep>
   <time name="dav">    8.89    8.90</time>
   <time name="total">   10.05   10.07</time>
   <energy>
    <i name="alphaZ">    111.26485309 </i>
    <i name="ewald">  -3983.74970960 </i>
    <i name="hartreedc">   -680.68271683 </i>
    <i name="XCdc">   -307.13273897 </i>
    <i name="pawpsdc">   5047.46505704 </i>
    <i name="pawaedc">  -4556.85400873 </i>
    <i name="eentropy">      0.00000000 </i>
    <i name="bandstr">     92.28773828 </i>
    <i name="atom">   4811.47480425 </i>
    <i name="e_fr_energy">    534.07327853 </i>
    <i name="e_wo_entrp">    534.07327853 </i>
    <i name="e_0_energy">    534.07327853 </i>
   </energy>
  </scstep>
  <scstep>
   <time name="dav">   12.12   12.14</time>
   <time name="total">   12.12   12.14</time>
   <energy>
    <i name="e_fr_energy">      8.51443601 </i>
    <i name="e_wo_entrp">      8.51443601 </i>
    <i name="e_0_energy">      8.51443601 </i>
   </energy>
  </scstep>
  <scstep>
   <time name="dav">   11.78   11.83</time>
   <time name="total">   11.78   11.83</time>
   <energy>
    <i name="e_fr_energy">    -36.70981926 </i>
    <i name="e_wo_entrp">    -36.70981926 </i>
    <i name="e_0_energy">    -36.70981926 </i>
   </energy>
  </scstep>
  <scstep>
   <time name="dav">   12.75   12.77</time>
   <time name="total">   12.75   12.77</time>
   <energy>
    <i name="e_fr_energy">    -37.58609792 </i>
    <i name="e_wo_entrp">    -37.58609792 </i>
    <i name="e_0_energy">    -37.58609792 </i>
   </energy>
  </scstep>
  <scstep>
   <time name="dav">   11.66   11.67</time>
   <time name="total">   11.66   11.67</time>
   <energy>
    <i name="e_fr_energy">    -37.58853654 </i>
    <i name="e_wo_entrp">    -37.58853654 </i>
    <i name="e_0_energy">    -37.58853654 </i>
   </energy>
  </scstep>
  <scstep>
   <time name="diag">    1.64    1.64</time>
   <time name="diis">    5.74    5.76</time>
   <time name="orth">    3.91    4.01</time>
   <time name="total">   11.30   11.42</time>
   <energy>
    <i name="e_fr_energy">    -37.58859212 </i>
    <i name="e_wo_entrp">    -37.58859212 </i>
    <i name="e_0_energy">    -37.58859212 </i>
   </energy>
  </scstep>
  <scstep>
   <time name="diag">    1.69    1.70</time>
   <time name="diis">    6.29    6.31</time>
   <time name="orth">    4.29    4.14</time>
   <time name="total">   12.28   12.14</time>
   <energy>
    <i name="e_fr_energy">    -37.58860200 </i>
    <i name="e_wo_entrp">    -37.58860200 </i>
    <i name="e_0_energy">    -37.58860200 </i>
   </energy>
  </scstep>
  <scstep>
   <time name="diag">    1.62    1.62</time>
   <time name="diis">    5.00    5.00</time>
   <time name="orth">    3.90    4.00</time>
   <time name="total">   10.51   10.62</time>
   <energy>
    <i name="alphaZ">    111.26485309 </i>
    <i name="ewald">  -3983.74970960 </i>
    <i name="hartreedc">   -680.68271683 </i>
    <i name="XCdc">   -307.13273897 </i>
    <i name="pawpsdc">   5047.46505704 </i>
    <i name="pawaedc">  -4556.85400873 </i>
    <i name="eentropy">      0.00000000 </i>
    <i name="bandstr">   -479.37414229 </i>
    <i name="atom">   4811.47480425 </i>
    <i name="e_fr_energy">    -37.58860205 </i>
    <i name="e_wo_entrp">    -37.58860205 </i>
    <i name="e_0_energy">    -37.58860205 </i>
   </energy>
  </scstep>
  <structure>
   <crystal>
    <varray name="basis" >
     <v>       8.72996100       0.00000000       0.00000000 </v>
     <v>      -4.36498100       7.56036800       0.00000000 </v>
     <v>       0.00000000       0.00000000      10.81646900 </v>
    </varray>
    <i name="volume">    713.90553438 </i>
    <varray name="rec_basis" >
     <v>       0.11454805       0.06613435       0.00000000 </v>
     <v>       0.00000000       0.13226869       0.00000000 </v>
     <v>       0.00000000       0.00000000       0.09245161 </v>
    </varray>
   </crystal>
   <varray name="positions" >
    <v>       0.00000000       0.00000000       0.00000000 </v>
    <v>       0.33333300       0.66666700       0.32532400 </v>
    <v>       0.66666700       0.33333300       0.67467600 </v>
    <v>       0.33333300       0.66666700       0.80751800 </v>
    <v>       0.66666700       0.33333300       0.19248200 </v>
    <v>       0.00000000       0.50000000       0.00000000 </v>
    <v>       0.50000000       0.00000000       0.00000000 </v>
    <v>       0.50000000       0.50000000       0.00000000 </v>
    <v>       0.16502400       0.83497600       0.66246600 </v>
    <v>       0.66995100       0.83497600       0.66246600 </v>
    <v>       0.16502400       0.33004900       0.66246600 </v>
    <v>       0.83497600       0.16502400       0.33753400 </v>
    <v>       0.33004900       0.16502400       0.33753400 </v>
    <v>       0.83497600       0.66995100       0.33753400 </v>
   </varray>
  </structure>
  <varray name="forces" >
   <v>       0.00000000       0.00000000       0.00000000 </v>
   <v>       0.00000000       0.00000000       0.00080521 </v>
   <v>      -0.00000000       0.00000000      -0.00080521 </v>
   <v>      -0.00000000       0.00000000       0.06678260 </v>
   <v>       0.00000000       0.00000000      -0.06678260 </v>
   <v>       0.00000000       0.00000000       0.00000000 </v>
   <v>       0.00000000       0.00000000       0.00000000 </v>
   <v>       0.00000000       0.00000000       0.00000000 </v>
   <v>       0.09704148      -0.05602692       0.05663884 </v>
   <v>      -0.09704147      -0.05602692       0.05663884 </v>
   <v>      -0.00000001       0.11205385       0.05663884 </v>
   <v>      -0.09704148       0.05602692      -0.05663884 </v>
   <v>       0.09704147       0.05602692      -0.05663884 </v>
   <v>       0.00000001      -0.11205385      -0.05663884 </v>
  </varray>
  <varray name="stress" >
   <v>      -1.98714718       0.00000013       0.00000000 </v>
   <v>       0.00000013      -1.98714718       0.00000000 </v>
   <v>       0.00000000       0.00000000      -2.07837989 </v>
  </varray>
  <energy>
   <i name="e_fr_energy">    -37.58860205 </i>
   <i name="e_wo_entrp">    -37.58860205 </i>
   <i name="e_0_energy">      0.00000000 </i>
  </energy>
  <time name="totalsc">  104.73  105.00</time>
  <eigenvalues>
   <array>
    <dimension dim="1">band</dimension>
    <dimension dim="2">kpoint</dimension>
    <dimension dim="3">spin</dimension>
    <field>eigene</field>
    <field>occ</field>
    <set>
     <set comment="spin 1">
      <set comment="kpoint 1">
       <r>  -19.7975    1.0000 </r>
       <r>  -19.7926    1.0000 </r>
       <r>  -19.7922    1.0000 </r>
       <r>  -11.2701    1.0000 </r>
       <r>  -11.0111    1.0000 </r>
       <r>  -10.3291    1.0000 </r>
       <r>  -10.2348    1.0000 </r>
       <r>  -10.2348    1.0000 </r>
       <r>  -10.2294    1.0000 </r>
       <r>  -10.2294    1.0000 </r>
       <r>  -10.0481    1.0000 </r>
       <r>  -10.0480    1.0000 </r>
       <r>   -8.6966    1.0000 </r>
       <r>   -8.3199    1.0000 </r>
       <r>   -6.5974    1.0000 </r>
       <r>   -6.5974    1.0000 </r>
       <r>   -6.5935    1.0000 </r>
       <r>   -6.5935    1.0000 </r>
       <r>   -6.5857    1.0000 </r>
       <r>   -6.5855    1.0000 </r>
       <r>   -6.5855    1.0000 </r>
       <r>   -6.5845    1.0000 </r>
       <r>   -6.5771    1.0000 </r>
       <r>   -2.3571    1.0000 </r>
       <r>   -2.2451    1.0000 </r>
       <r>   -2.2451    1.0000 </r>
       <r>   -1.4661    1.0000 </r>
       <r>   -1.2916    1.0000 </r>
       <r>   -1.2916    1.0000 </r>
       <r>   -0.7660    1.0000 </r>
       <r>   -0.5965    1.0000 </r>
       <r>   -0.5965    1.0000 </r>
       <r>   -0.5560    1.0000 </r>
       <r>   -0.5191    1.0000 </r>
       <r>   -0.5191    1.0000 </r>
       <r>   -0.1789    1.0000 </r>
       <r>   -0.1788    1.0000 </r>
       <r>    0.1561    1.0000 </r>
       <r>    0.1633    1.0000 </r>
       <r>    0.1633    1.0000 </r>
       <r>    0.1921    1.0000 </r>
       <r>    0.3255    1.0000 </r>
       <r>    0.3255    1.0000 </r>
       <r>    0.5309    1.0000 </r>
       <r>    0.5309    1.0000 </r>
       <r>    0.5859    1.0000 </r>
       <r>    0.6219    1.0000 </r>
       <r>    0.6219    1.0000 </r>
       <r>    0.6292    1.0000 </r>
       <r>    0.6441    1.0000 </r>
       <r>    2.6059    0.0000 </r>
       <r>    3.4977    0.0000 </r>
       <r>    3.4977    0.0000 </r>
       <r>    4.3426    0.0000 </r>
       <r>    4.4395    0.0000 </r>
       <r>    4.4395    0.0000 </r>
       <r>    4.6957    0.0000 </r>
       <r>    5.6167    0.0000 </r>
       <r>    5.6167    0.0000 </r>
       <r>    5.8423    0.0000 </r>
       <r>    5.9318    0.0000 </r>
       <r>    6.0463    0.0000 </r>
       <r>    6.0463    0.0000 </r>
       <r>    6.0828    0.0000 </r>
       <r>    6.6677    0.0000 </r>
       <r>    6.6678    0.0000 </r>
       <r>    6.6734    0.0000 </r>
       <r>    6.6734    0.0000 </r>
       <r>    6.8377    0.0000 </r>
       <r>    6.8448    0.0000 </r>
       <r>    7.5757    0.0000 </r>
       <r>    7.5757    0.0000 </r>
       <r>    7.5934    0.0000 </r>
       <r>    7.5934    0.0000 </r>
       <r>    8.2402    0.0000 </r>
       <r>    8.2871    0.0000 </r>
       <r>    8.4067    0.0000 </r>
       <r>    8.4067    0.0000 </r>
       <r>    8.4411    0.0000 </r>
       <r>    8.7546    0.0000 </r>
       <r>    8.8085    0.0000 </r>
       <r>    8.8085    0.0000 </r>
       <r>    8.8406    0.0000 </r>
       <r>    8.8406    0.0000 </r>
       <r>    9.0131    0.0000 </r>
       <r>    9.0132    0.0000 </r>
       <r>    9.2271    0.0000 </r>
       <r>    9.2271    0.0000 </r>
       <r>    9.3055    0.0000 </r>
       <r>    9.6917    0.0000 </r>
       <r>    9.7195    0.0000 </r>
       <r>    9.9677    0.0000 </r>
       <r>   10.3433    0.0000 </r>
       <r>   10.3434    0.0000 </r>
       <r>   10.5316    0.0000 </r>
       <r>   10.5352    0.0000 </r>
      </set>
      <set comment="kpoint 2">
       <r>  -19.7975    1.0000 </r>
       <r>  -19.7925    1.0000 </r>
       <r>  -19.7923    1.0000 </r>
       <r>  -11.2012    1.0000 </r>
       <r>  -11.0439    1.0000 </r>
       <r>  -10.3345    1.0000 </r>
       <r>  -10.2747    1.0000 </r>
       <r>  -10.2725    1.0000 </r>
       <r>  -10.2400    1.0000 </r>
       <r>  -10.1815    1.0000 </r>
       <r>  -10.1189    1.0000 </r>
       <r>  -10.0595    1.0000 </r>
       <r>   -8.5630    1.0000 </r>
       <r>   -8.3530    1.0000 </r>
       <r>   -6.5901    1.0000 </r>
       <r>   -6.5867    1.0000 </r>
       <r>   -6.5855    1.0000 </r>
       <r>   -6.5831    1.0000 </r>
       <r>   -6.5831    1.0000 </r>
       <r>   -6.5817    1.0000 </r>
       <r>   -6.5760    1.0000 </r>
       <r>   -6.5738    1.0000 </r>
       <r>   -6.5713    1.0000 </r>
       <r>   -2.3589    1.0000 </r>
       <r>   -2.1274    1.0000 </r>
       <r>   -2.1169    1.0000 </r>
       <r>   -1.5836    1.0000 </r>
       <r>   -1.4553    1.0000 </r>
       <r>   -1.2673    1.0000 </r>
       <r>   -0.8773    1.0000 </r>
       <r>   -0.6831    1.0000 </r>
       <r>   -0.5100    1.0000 </r>
       <r>   -0.4516    1.0000 </r>
       <r>   -0.3647    1.0000 </r>
       <r>   -0.3564    1.0000 </r>
       <r>   -0.1747    1.0000 </r>
       <r>   -0.0872    1.0000 </r>
       <r>   -0.0101    1.0000 </r>
       <r>   -0.0006    1.0000 </r>
       <r>    0.0637    1.0000 </r>
       <r>    0.1723    1.0000 </r>
       <r>    0.2083    1.0000 </r>
       <r>    0.2587    1.0000 </r>
       <r>    0.3122    1.0000 </r>
       <r>    0.3188    1.0000 </r>
       <r>    0.3633    1.0000 </r>
       <r>    0.4259    1.0000 </r>
       <r>    0.4919    1.0000 </r>
       <r>    0.6295    1.0000 </r>
       <r>    0.7307    1.0000 </r>
       <r>    3.1107    0.0000 </r>
       <r>    3.3292    0.0000 </r>
       <r>    3.3898    0.0000 </r>
       <r>    4.2394    0.0000 </r>
       <r>    4.7282    0.0000 </r>
       <r>    4.7467    0.0000 </r>
       <r>    5.3630    0.0000 </r>
       <r>    6.0194    0.0000 </r>
       <r>    6.0453    0.0000 </r>
       <r>    6.1569    0.0000 </r>
       <r>    6.3956    0.0000 </r>
       <r>    6.4870    0.0000 </r>
       <r>    6.6411    0.0000 </r>
       <r>    6.6733    0.0000 </r>
       <r>    6.7250    0.0000 </r>
       <r>    6.8048    0.0000 </r>
       <r>    6.8761    0.0000 </r>
       <r>    7.0339    0.0000 </r>
       <r>    7.1251    0.0000 </r>
       <r>    7.2050    0.0000 </r>
       <r>    7.3232    0.0000 </r>
       <r>    7.4137    0.0000 </r>
       <r>    7.5675    0.0000 </r>
       <r>    7.8419    0.0000 </r>
       <r>    7.9245    0.0000 </r>
       <r>    7.9897    0.0000 </r>
       <r>    8.0926    0.0000 </r>
       <r>    8.3366    0.0000 </r>
       <r>    8.3803    0.0000 </r>
       <r>    8.3804    0.0000 </r>
       <r>    8.4986    0.0000 </r>
       <r>    8.5484    0.0000 </r>
       <r>    8.6173    0.0000 </r>
       <r>    8.6682    0.0000 </r>
       <r>    8.7536    0.0000 </r>
       <r>    8.7574    0.0000 </r>
       <r>    8.9130    0.0000 </r>
       <r>    8.9264    0.0000 </r>
       <r>    9.1712    0.0000 </r>
       <r>    9.2865    0.0000 </r>
       <r>    9.3169    0.0000 </r>
       <r>    9.7009    0.0000 </r>
       <r>    9.7505    0.0000 </r>
       <r>    9.8143    0.0000 </r>
       <r>   10.0001    0.0000 </r>
       <r>   10.0228    0.0000 </r>
      </set>
      <set comment="kpoint 3">
       <r>  -19.7975    1.0000 </r>
       <r>  -19.7924    1.0000 </r>
       <r>  -19.7924    1.0000 </r>
       <r>  -11.1134    1.0000 </r>
       <r>  -11.1133    1.0000 </r>
       <r>  -10.3912    1.0000 </r>
       <r>  -10.2453    1.0000 </r>
       <r>  -10.2453    1.0000 </r>
       <r>  -10.2387    1.0000 </r>
       <r>  -10.1706    1.0000 </r>
       <r>  -10.1705    1.0000 </r>
       <r>  -10.0817    1.0000 </r>
       <r>   -8.4342    1.0000 </r>
       <r>   -8.4342    1.0000 </r>
       <r>   -6.5866    1.0000 </r>
       <r>   -6.5818    1.0000 </r>
       <r>   -6.5818    1.0000 </r>
       <r>   -6.5765    1.0000 </r>
       <r>   -6.5756    1.0000 </r>
       <r>   -6.5755    1.0000 </r>
       <r>   -6.5731    1.0000 </r>
       <r>   -6.5731    1.0000 </r>
       <r>   -6.5730    1.0000 </r>
       <r>   -2.1520    1.0000 </r>
       <r>   -2.1519    1.0000 </r>
       <r>   -2.1104    1.0000 </r>
       <r>   -1.9300    1.0000 </r>
       <r>   -1.2366    1.0000 </r>
       <r>   -1.2366    1.0000 </r>
       <r>   -0.7518    1.0000 </r>
       <r>   -0.7518    1.0000 </r>
       <r>   -0.7167    1.0000 </r>
       <r>   -0.4322    1.0000 </r>
       <r>   -0.2460    1.0000 </r>
       <r>   -0.2459    1.0000 </r>
       <r>   -0.0891    1.0000 </r>
       <r>   -0.0703    1.0000 </r>
       <r>   -0.0703    1.0000 </r>
       <r>   -0.0337    1.0000 </r>
       <r>    0.0089    1.0000 </r>
       <r>    0.0089    1.0000 </r>
       <r>    0.0425    1.0000 </r>
       <r>    0.1203    1.0000 </r>
       <r>    0.1203    1.0000 </r>
       <r>    0.2740    1.0000 </r>
       <r>    0.4933    1.0000 </r>
       <r>    0.4933    1.0000 </r>
       <r>    0.5399    1.0000 </r>
       <r>    0.5844    1.0000 </r>
       <r>    0.5844    1.0000 </r>
       <r>    2.9172    0.0000 </r>
       <r>    3.5090    0.0000 </r>
       <r>    3.5090    0.0000 </r>
       <r>    4.6362    0.0000 </r>
       <r>    4.6477    0.0000 </r>
       <r>    4.6477    0.0000 </r>
       <r>    6.2156    0.0000 </r>
       <r>    6.2157    0.0000 </r>
       <r>    6.2514    0.0000 </r>
       <r>    6.5944    0.0000 </r>
       <r>    6.5944    0.0000 </r>
       <r>    6.6549    0.0000 </r>
       <r>    6.8790    0.0000 </r>
       <r>    6.8809    0.0000 </r>
       <r>    6.8810    0.0000 </r>
       <r>    7.0592    0.0000 </r>
       <r>    7.0593    0.0000 </r>
       <r>    7.2075    0.0000 </r>
       <r>    7.2417    0.0000 </r>
       <r>    7.2417    0.0000 </r>
       <r>    7.3128    0.0000 </r>
       <r>    7.4623    0.0000 </r>
       <r>    7.4623    0.0000 </r>
       <r>    7.5236    0.0000 </r>
       <r>    7.6672    0.0000 </r>
       <r>    7.7409    0.0000 </r>
       <r>    7.7409    0.0000 </r>
       <r>    7.8141    0.0000 </r>
       <r>    8.0914    0.0000 </r>
       <r>    8.0914    0.0000 </r>
       <r>    8.4181    0.0000 </r>
       <r>    8.7437    0.0000 </r>
       <r>    8.7437    0.0000 </r>
       <r>    8.7567    0.0000 </r>
       <r>    8.8138    0.0000 </r>
       <r>    8.8216    0.0000 </r>
       <r>    8.8216    0.0000 </r>
       <r>    8.9704    0.0000 </r>
       <r>    8.9704    0.0000 </r>
       <r>    9.1218    0.0000 </r>
       <r>    9.1218    0.0000 </r>
       <r>    9.1744    0.0000 </r>
       <r>    9.2465    0.0000 </r>
       <r>    9.2636    0.0000 </r>
       <r>    9.2636    0.0000 </r>
       <r>    9.4187    0.0000 </r>
      </set>
      <set comment="kpoint 4">
       <r>  -19.7975    1.0000 </r>
       <r>  -19.7926    1.0000 </r>
       <r>  -19.7921    1.0000 </r>
       <r>  -11.2328    1.0000 </r>
       <r>  -11.0779    1.0000 </r>
       <r>  -10.2766    1.0000 </r>
       <r>  -10.2727    1.0000 </r>
       <r>  -10.2727    1.0000 </r>
       <r>  -10.1739    1.0000 </r>
       <r>  -10.1739    1.0000 </r>
       <r>  -10.0661    1.0000 </r>
       <r>  -10.0661    1.0000 </r>
       <r>   -8.7823    1.0000 </r>
       <r>   -8.2537    1.0000 </r>
       <r>   -6.6065    1.0000 </r>
       <r>   -6.6061    1.0000 </r>
       <r>   -6.6061    1.0000 </r>
       <r>   -6.5849    1.0000 </r>
       <r>   -6.5849    1.0000 </r>
       <r>   -6.5848    1.0000 </r>
       <r>   -6.5848    1.0000 </r>
       <r>   -6.5735    1.0000 </r>
       <r>   -6.5688    1.0000 </r>
       <r>   -2.4441    1.0000 </r>
       <r>   -2.0997    1.0000 </r>
       <r>   -2.0996    1.0000 </r>
       <r>   -1.6155    1.0000 </r>
       <r>   -1.6155    1.0000 </r>
       <r>   -1.3525    1.0000 </r>
       <r>   -0.7672    1.0000 </r>
       <r>   -0.7472    1.0000 </r>
       <r>   -0.7472    1.0000 </r>
       <r>   -0.2623    1.0000 </r>
       <r>   -0.1156    1.0000 </r>
       <r>   -0.1156    1.0000 </r>
       <r>   -0.0969    1.0000 </r>
       <r>   -0.0969    1.0000 </r>
       <r>    0.0613    1.0000 </r>
       <r>    0.0613    1.0000 </r>
       <r>    0.1007    1.0000 </r>
       <r>    0.2233    1.0000 </r>
       <r>    0.3010    1.0000 </r>
       <r>    0.3362    1.0000 </r>
       <r>    0.3362    1.0000 </r>
       <r>    0.3424    1.0000 </r>
       <r>    0.4345    1.0000 </r>
       <r>    0.4345    1.0000 </r>
       <r>    0.7671    1.0000 </r>
       <r>    0.7712    1.0000 </r>
       <r>    0.7712    1.0000 </r>
       <r>    2.8405    0.0000 </r>
       <r>    3.0443    0.0000 </r>
       <r>    3.0444    0.0000 </r>
       <r>    4.2194    0.0000 </r>
       <r>    4.8166    0.0000 </r>
       <r>    4.8167    0.0000 </r>
       <r>    5.3733    0.0000 </r>
       <r>    5.4367    0.0000 </r>
       <r>    5.5145    0.0000 </r>
       <r>    6.0260    0.0000 </r>
       <r>    6.0260    0.0000 </r>
       <r>    6.0896    0.0000 </r>
       <r>    6.0896    0.0000 </r>
       <r>    6.4118    0.0000 </r>
       <r>    6.4801    0.0000 </r>
       <r>    6.4801    0.0000 </r>
       <r>    6.5734    0.0000 </r>
       <r>    6.5902    0.0000 </r>
       <r>    6.5902    0.0000 </r>
       <r>    6.6974    0.0000 </r>
       <r>    6.8838    0.0000 </r>
       <r>    6.8838    0.0000 </r>
       <r>    7.6989    0.0000 </r>
       <r>    7.6989    0.0000 </r>
       <r>    7.8235    0.0000 </r>
       <r>    8.3654    0.0000 </r>
       <r>    8.5502    0.0000 </r>
       <r>    8.5502    0.0000 </r>
       <r>    8.8897    0.0000 </r>
       <r>    8.9051    0.0000 </r>
       <r>    8.9051    0.0000 </r>
       <r>    9.0208    0.0000 </r>
       <r>    9.0455    0.0000 </r>
       <r>    9.0455    0.0000 </r>
       <r>    9.1313    0.0000 </r>
       <r>    9.3680    0.0000 </r>
       <r>    9.5794    0.0000 </r>
       <r>    9.5794    0.0000 </r>
       <r>    9.5887    0.0000 </r>
       <r>    9.5962    0.0000 </r>
       <r>    9.5962    0.0000 </r>
       <r>    9.6429    0.0000 </r>
       <r>    9.6429    0.0000 </r>
       <r>   10.3062    0.0000 </r>
       <r>   10.3117    0.0000 </r>
       <r>   10.3621    0.0000 </r>
      </set>
      <set comment="kpoint 5">
       <r>  -19.7975    1.0000 </r>
       <r>  -19.7925    1.0000 </r>
       <r>  -19.7923    1.0000 </r>
       <r>  -11.1773    1.0000 </r>
       <r>  -11.0777    1.0000 </r>
       <r>  -10.3552    1.0000 </r>
       <r>  -10.2575    1.0000 </r>
       <r>  -10.2561    1.0000 </r>
       <r>  -10.2217    1.0000 </r>
       <r>  -10.2097    1.0000 </r>
       <r>  -10.1106    1.0000 </r>
       <r>  -10.0500    1.0000 </r>
       <r>   -8.6117    1.0000 </r>
       <r>   -8.3156    1.0000 </r>
       <r>   -6.5965    1.0000 </r>
       <r>   -6.5944    1.0000 </r>
       <r>   -6.5836    1.0000 </r>
       <r>   -6.5831    1.0000 </r>
       <r>   -6.5801    1.0000 </r>
       <r>   -6.5799    1.0000 </r>
       <r>   -6.5783    1.0000 </r>
       <r>   -6.5703    1.0000 </r>
       <r>   -6.5655    1.0000 </r>
       <r>   -2.2735    1.0000 </r>
       <r>   -2.1856    1.0000 </r>
       <r>   -2.1428    1.0000 </r>
       <r>   -1.7214    1.0000 </r>
       <r>   -1.4053    1.0000 </r>
       <r>   -1.1912    1.0000 </r>
       <r>   -0.7695    1.0000 </r>
       <r>   -0.6156    1.0000 </r>
       <r>   -0.5855    1.0000 </r>
       <r>   -0.5469    1.0000 </r>
       <r>   -0.4212    1.0000 </r>
       <r>   -0.2221    1.0000 </r>
       <r>   -0.1792    1.0000 </r>
       <r>   -0.1422    1.0000 </r>
       <r>   -0.0173    1.0000 </r>
       <r>   -0.0149    1.0000 </r>
       <r>    0.1145    1.0000 </r>
       <r>    0.1384    1.0000 </r>
       <r>    0.1523    1.0000 </r>
       <r>    0.2215    1.0000 </r>
       <r>    0.2400    1.0000 </r>
       <r>    0.4198    1.0000 </r>
       <r>    0.4629    1.0000 </r>
       <r>    0.5051    1.0000 </r>
       <r>    0.5270    1.0000 </r>
       <r>    0.5471    1.0000 </r>
       <r>    0.6790    1.0000 </r>
       <r>    2.8596    0.0000 </r>
       <r>    3.4357    0.0000 </r>
       <r>    3.4387    0.0000 </r>
       <r>    4.4641    0.0000 </r>
       <r>    4.6093    0.0000 </r>
       <r>    4.6868    0.0000 </r>
       <r>    5.8846    0.0000 </r>
       <r>    5.9273    0.0000 </r>
       <r>    5.9657    0.0000 </r>
       <r>    6.3348    0.0000 </r>
       <r>    6.3721    0.0000 </r>
       <r>    6.4890    0.0000 </r>
       <r>    6.5492    0.0000 </r>
       <r>    6.6040    0.0000 </r>
       <r>    6.6305    0.0000 </r>
       <r>    6.6983    0.0000 </r>
       <r>    6.8021    0.0000 </r>
       <r>    6.9374    0.0000 </r>
       <r>    6.9763    0.0000 </r>
       <r>    7.1832    0.0000 </r>
       <r>    7.3364    0.0000 </r>
       <r>    7.3405    0.0000 </r>
       <r>    7.4568    0.0000 </r>
       <r>    7.5471    0.0000 </r>
       <r>    7.7553    0.0000 </r>
       <r>    7.8925    0.0000 </r>
       <r>    8.0611    0.0000 </r>
       <r>    8.2284    0.0000 </r>
       <r>    8.5341    0.0000 </r>
       <r>    8.5420    0.0000 </r>
       <r>    8.6098    0.0000 </r>
       <r>    8.6859    0.0000 </r>
       <r>    8.7155    0.0000 </r>
       <r>    8.8129    0.0000 </r>
       <r>    8.8198    0.0000 </r>
       <r>    9.0610    0.0000 </r>
       <r>    9.1480    0.0000 </r>
       <r>    9.1527    0.0000 </r>
       <r>    9.2642    0.0000 </r>
       <r>    9.2718    0.0000 </r>
       <r>    9.4422    0.0000 </r>
       <r>    9.4803    0.0000 </r>
       <r>    9.6117    0.0000 </r>
       <r>    9.6161    0.0000 </r>
       <r>    9.6711    0.0000 </r>
       <r>    9.9650    0.0000 </r>
      </set>
      <set comment="kpoint 6">
       <r>  -19.7975    1.0000 </r>
       <r>  -19.7924    1.0000 </r>
       <r>  -19.7924    1.0000 </r>
       <r>  -11.1130    1.0000 </r>
       <r>  -11.1130    1.0000 </r>
       <r>  -10.3699    1.0000 </r>
       <r>  -10.2788    1.0000 </r>
       <r>  -10.2757    1.0000 </r>
       <r>  -10.2757    1.0000 </r>
       <r>  -10.1373    1.0000 </r>
       <r>  -10.1373    1.0000 </r>
       <r>  -10.0625    1.0000 </r>
       <r>   -8.4386    1.0000 </r>
       <r>   -8.4386    1.0000 </r>
       <r>   -6.5866    1.0000 </r>
       <r>   -6.5853    1.0000 </r>
       <r>   -6.5853    1.0000 </r>
       <r>   -6.5760    1.0000 </r>
       <r>   -6.5747    1.0000 </r>
       <r>   -6.5747    1.0000 </r>
       <r>   -6.5739    1.0000 </r>
       <r>   -6.5704    1.0000 </r>
       <r>   -6.5704    1.0000 </r>
       <r>   -2.3394    1.0000 </r>
       <r>   -2.1031    1.0000 </r>
       <r>   -2.1031    1.0000 </r>
       <r>   -1.5379    1.0000 </r>
       <r>   -1.3705    1.0000 </r>
       <r>   -1.3705    1.0000 </r>
       <r>   -0.6334    1.0000 </r>
       <r>   -0.6334    1.0000 </r>
       <r>   -0.6270    1.0000 </r>
       <r>   -0.5369    1.0000 </r>
       <r>   -0.4207    1.0000 </r>
       <r>   -0.4077    1.0000 </r>
       <r>   -0.4077    1.0000 </r>
       <r>   -0.1090    1.0000 </r>
       <r>   -0.1090    1.0000 </r>
       <r>    0.0228    1.0000 </r>
       <r>    0.1343    1.0000 </r>
       <r>    0.2062    1.0000 </r>
       <r>    0.2062    1.0000 </r>
       <r>    0.2806    1.0000 </r>
       <r>    0.2807    1.0000 </r>
       <r>    0.3295    1.0000 </r>
       <r>    0.3812    1.0000 </r>
       <r>    0.3812    1.0000 </r>
       <r>    0.4019    1.0000 </r>
       <r>    0.5350    1.0000 </r>
       <r>    0.5350    1.0000 </r>
       <r>    3.3804    0.0000 </r>
       <r>    3.3804    0.0000 </r>
       <r>    3.4596    0.0000 </r>
       <r>    4.0921    0.0000 </r>
       <r>    4.7689    0.0000 </r>
       <r>    4.7689    0.0000 </r>
       <r>    6.2759    0.0000 </r>
       <r>    6.2759    0.0000 </r>
       <r>    6.2919    0.0000 </r>
       <r>    6.5370    0.0000 </r>
       <r>    6.5370    0.0000 </r>
       <r>    6.5671    0.0000 </r>
       <r>    6.8744    0.0000 </r>
       <r>    6.8744    0.0000 </r>
       <r>    6.9828    0.0000 </r>
       <r>    7.1033    0.0000 </r>
       <r>    7.1033    0.0000 </r>
       <r>    7.2571    0.0000 </r>
       <r>    7.3026    0.0000 </r>
       <r>    7.3030    0.0000 </r>
       <r>    7.3030    0.0000 </r>
       <r>    7.4032    0.0000 </r>
       <r>    7.4235    0.0000 </r>
       <r>    7.4235    0.0000 </r>
       <r>    7.6040    0.0000 </r>
       <r>    7.6886    0.0000 </r>
       <r>    7.6886    0.0000 </r>
       <r>    8.1122    0.0000 </r>
       <r>    8.1123    0.0000 </r>
       <r>    8.1147    0.0000 </r>
       <r>    8.2858    0.0000 </r>
       <r>    8.4244    0.0000 </r>
       <r>    8.4244    0.0000 </r>
       <r>    8.6213    0.0000 </r>
       <r>    8.6559    0.0000 </r>
       <r>    8.6559    0.0000 </r>
       <r>    8.7846    0.0000 </r>
       <r>    8.7847    0.0000 </r>
       <r>    8.8645    0.0000 </r>
       <r>    9.3351    0.0000 </r>
       <r>    9.3967    0.0000 </r>
       <r>    9.4663    0.0000 </r>
       <r>    9.4663    0.0000 </r>
       <r>    9.7511    0.0000 </r>
       <r>   10.0407    0.0000 </r>
       <r>   10.0414    0.0000 </r>
      </set>
     </set>
     <set comment="spin 2">
      <set comment="kpoint 1">
       <r>  -19.7975    1.0000 </r>
       <r>  -19.7926    1.0000 </r>
       <r>  -19.7922    1.0000 </r>
       <r>  -11.2700    1.0000 </r>
       <r>  -11.0111    1.0000 </r>
       <r>  -10.3291    1.0000 </r>
       <r>  -10.2348    1.0000 </r>
       <r>  -10.2348    1.0000 </r>
       <r>  -10.2294    1.0000 </r>
       <r>  -10.2294    1.0000 </r>
       <r>  -10.0481    1.0000 </r>
       <r>  -10.0480    1.0000 </r>
       <r>   -8.6966    1.0000 </r>
       <r>   -8.3199    1.0000 </r>
       <r>   -6.5974    1.0000 </r>
       <r>   -6.5974    1.0000 </r>
       <r>   -6.5935    1.0000 </r>
       <r>   -6.5935    1.0000 </r>
       <r>   -6.5857    1.0000 </r>
       <r>   -6.5855    1.0000 </r>
       <r>   -6.5855    1.0000 </r>
       <r>   -6.5845    1.0000 </r>
       <r>   -6.5771    1.0000 </r>
       <r>   -2.3571    1.0000 </r>
       <r>   -2.2451    1.0000 </r>
       <r>   -2.2451    1.0000 </r>
       <r>   -1.4661    1.0000 </r>
       <r>   -1.2916    1.0000 </r>
       <r>   -1.2916    1.0000 </r>
       <r>   -0.7660    1.0000 </r>
       <r>   -0.5965    1.0000 </r>
       <r>   -0.5965    1.0000 </r>
       <r>   -0.5560    1.0000 </r>
       <r>   -0.5191    1.0000 </r>
       <r>   -0.5191    1.0000 </r>
       <r>   -0.1789    1.0000 </r>
       <r>   -0.1788    1.0000 </r>
       <r>    0.1561    1.0000 </r>
       <r>    0.1633    1.0000 </r>
       <r>    0.1633    1.0000 </r>
       <r>    0.1921    1.0000 </r>
       <r>    0.3255    1.0000 </r>
       <r>    0.3255    1.0000 </r>
       <r>    0.5309    1.0000 </r>
       <r>    0.5309    1.0000 </r>
       <r>    0.5859    1.0000 </r>
       <r>    0.6219    1.0000 </r>
       <r>    0.6219    1.0000 </r>
       <r>    0.6292    1.0000 </r>
       <r>    0.6441    1.0000 </r>
       <r>    2.6059    0.0000 </r>
       <r>    3.4977    0.0000 </r>
       <r>    3.4977    0.0000 </r>
       <r>    4.3426    0.0000 </r>
       <r>    4.4395    0.0000 </r>
       <r>    4.4396    0.0000 </r>
       <r>    4.6957    0.0000 </r>
       <r>    5.6167    0.0000 </r>
       <r>    5.6167    0.0000 </r>
       <r>    5.8423    0.0000 </r>
       <r>    5.9318    0.0000 </r>
       <r>    6.0463    0.0000 </r>
       <r>    6.0463    0.0000 </r>
       <r>    6.0828    0.0000 </r>
       <r>    6.6677    0.0000 </r>
       <r>    6.6678    0.0000 </r>
       <r>    6.6734    0.0000 </r>
       <r>    6.6734    0.0000 </r>
       <r>    6.8377    0.0000 </r>
       <r>    6.8448    0.0000 </r>
       <r>    7.5757    0.0000 </r>
       <r>    7.5757    0.0000 </r>
       <r>    7.5934    0.0000 </r>
       <r>    7.5934    0.0000 </r>
       <r>    8.2402    0.0000 </r>
       <r>    8.2871    0.0000 </r>
       <r>    8.4067    0.0000 </r>
       <r>    8.4067    0.0000 </r>
       <r>    8.4411    0.0000 </r>
       <r>    8.7546    0.0000 </r>
       <r>    8.8085    0.0000 </r>
       <r>    8.8085    0.0000 </r>
       <r>    8.8406    0.0000 </r>
       <r>    8.8406    0.0000 </r>
       <r>    9.0132    0.0000 </r>
       <r>    9.0132    0.0000 </r>
       <r>    9.2271    0.0000 </r>
       <r>    9.2271    0.0000 </r>
       <r>    9.3055    0.0000 </r>
       <r>    9.6917    0.0000 </r>
       <r>    9.7195    0.0000 </r>
       <r>    9.9677    0.0000 </r>
       <r>   10.3435    0.0000 </r>
       <r>   10.3445    0.0000 </r>
       <r>   10.5322    0.0000 </r>
       <r>   10.5352    0.0000 </r>
      </set>
      <set comment="kpoint 2">
       <r>  -19.7975    1.0000 </r>
       <r>  -19.7925    1.0000 </r>
       <r>  -19.7923    1.0000 </r>
       <r>  -11.2012    1.0000 </r>
       <r>  -11.0439    1.0000 </r>
       <r>  -10.3345    1.0000 </r>
       <r>  -10.2747    1.0000 </r>
       <r>  -10.2725    1.0000 </r>
       <r>  -10.2400    1.0000 </r>
       <r>  -10.1815    1.0000 </r>
       <r>  -10.1189    1.0000 </r>
       <r>  -10.0595    1.0000 </r>
       <r>   -8.5630    1.0000 </r>
       <r>   -8.3530    1.0000 </r>
       <r>   -6.5901    1.0000 </r>
       <r>   -6.5867    1.0000 </r>
       <r>   -6.5855    1.0000 </r>
       <r>   -6.5831    1.0000 </r>
       <r>   -6.5831    1.0000 </r>
       <r>   -6.5817    1.0000 </r>
       <r>   -6.5760    1.0000 </r>
       <r>   -6.5738    1.0000 </r>
       <r>   -6.5713    1.0000 </r>
       <r>   -2.3589    1.0000 </r>
       <r>   -2.1274    1.0000 </r>
       <r>   -2.1168    1.0000 </r>
       <r>   -1.5836    1.0000 </r>
       <r>   -1.4553    1.0000 </r>
       <r>   -1.2673    1.0000 </r>
       <r>   -0.8773    1.0000 </r>
       <r>   -0.6831    1.0000 </r>
       <r>   -0.5100    1.0000 </r>
       <r>   -0.4516    1.0000 </r>
       <r>   -0.3647    1.0000 </r>
       <r>   -0.3564    1.0000 </r>
       <r>   -0.1747    1.0000 </r>
       <r>   -0.0871    1.0000 </r>
       <r>   -0.0101    1.0000 </r>
       <r>   -0.0006    1.0000 </r>
       <r>    0.0637    1.0000 </r>
       <r>    0.1723    1.0000 </r>
       <r>    0.2083    1.0000 </r>
       <r>    0.2587    1.0000 </r>
       <r>    0.3122    1.0000 </r>
       <r>    0.3188    1.0000 </r>
       <r>    0.3633    1.0000 </r>
       <r>    0.4259    1.0000 </r>
       <r>    0.4919    1.0000 </r>
       <r>    0.6296    1.0000 </r>
       <r>    0.7307    1.0000 </r>
       <r>    3.1107    0.0000 </r>
       <r>    3.3292    0.0000 </r>
       <r>    3.3898    0.0000 </r>
       <r>    4.2394    0.0000 </r>
       <r>    4.7282    0.0000 </r>
       <r>    4.7467    0.0000 </r>
       <r>    5.3630    0.0000 </r>
       <r>    6.0194    0.0000 </r>
       <r>    6.0453    0.0000 </r>
       <r>    6.1569    0.0000 </r>
       <r>    6.3956    0.0000 </r>
       <r>    6.4870    0.0000 </r>
       <r>    6.6411    0.0000 </r>
       <r>    6.6733    0.0000 </r>
       <r>    6.7250    0.0000 </r>
       <r>    6.8048    0.0000 </r>
       <r>    6.8761    0.0000 </r>
       <r>    7.0339    0.0000 </r>
       <r>    7.1251    0.0000 </r>
       <r>    7.2050    0.0000 </r>
       <r>    7.3232    0.0000 </r>
       <r>    7.4137    0.0000 </r>
       <r>    7.5675    0.0000 </r>
       <r>    7.8419    0.0000 </r>
       <r>    7.9245    0.0000 </r>
       <r>    7.9898    0.0000 </r>
       <r>    8.0926    0.0000 </r>
       <r>    8.3366    0.0000 </r>
       <r>    8.3803    0.0000 </r>
       <r>    8.3804    0.0000 </r>
       <r>    8.4986    0.0000 </r>
       <r>    8.5484    0.0000 </r>
       <r>    8.6173    0.0000 </r>
       <r>    8.6682    0.0000 </r>
       <r>    8.7536    0.0000 </r>
       <r>    8.7574    0.0000 </r>
       <r>    8.9130    0.0000 </r>
       <r>    8.9264    0.0000 </r>
       <r>    9.1712    0.0000 </r>
       <r>    9.2865    0.0000 </r>
       <r>    9.3169    0.0000 </r>
       <r>    9.7009    0.0000 </r>
       <r>    9.7504    0.0000 </r>
       <r>    9.8145    0.0000 </r>
       <r>    9.9992    0.0000 </r>
       <r>   10.0222    0.0000 </r>
      </set>
      <set comment="kpoint 3">
       <r>  -19.7975    1.0000 </r>
       <r>  -19.7924    1.0000 </r>
       <r>  -19.7924    1.0000 </r>
       <r>  -11.1134    1.0000 </r>
       <r>  -11.1133    1.0000 </r>
       <r>  -10.3912    1.0000 </r>
       <r>  -10.2453    1.0000 </r>
       <r>  -10.2453    1.0000 </r>
       <r>  -10.2387    1.0000 </r>
       <r>  -10.1706    1.0000 </r>
       <r>  -10.1705    1.0000 </r>
       <r>  -10.0817    1.0000 </r>
       <r>   -8.4342    1.0000 </r>
       <r>   -8.4342    1.0000 </r>
       <r>   -6.5866    1.0000 </r>
       <r>   -6.5818    1.0000 </r>
       <r>   -6.5818    1.0000 </r>
       <r>   -6.5765    1.0000 </r>
       <r>   -6.5756    1.0000 </r>
       <r>   -6.5756    1.0000 </r>
       <r>   -6.5731    1.0000 </r>
       <r>   -6.5731    1.0000 </r>
       <r>   -6.5730    1.0000 </r>
       <r>   -2.1519    1.0000 </r>
       <r>   -2.1519    1.0000 </r>
       <r>   -2.1104    1.0000 </r>
       <r>   -1.9300    1.0000 </r>
       <r>   -1.2366    1.0000 </r>
       <r>   -1.2366    1.0000 </r>
       <r>   -0.7518    1.0000 </r>
       <r>   -0.7518    1.0000 </r>
       <r>   -0.7167    1.0000 </r>
       <r>   -0.4322    1.0000 </r>
       <r>   -0.2459    1.0000 </r>
       <r>   -0.2459    1.0000 </r>
       <r>   -0.0891    1.0000 </r>
       <r>   -0.0703    1.0000 </r>
       <r>   -0.0702    1.0000 </r>
       <r>   -0.0337    1.0000 </r>
       <r>    0.0089    1.0000 </r>
       <r>    0.0089    1.0000 </r>
       <r>    0.0425    1.0000 </r>
       <r>    0.1203    1.0000 </r>
       <r>    0.1203    1.0000 </r>
       <r>    0.2740    1.0000 </r>
       <r>    0.4933    1.0000 </r>
       <r>    0.4933    1.0000 </r>
       <r>    0.5399    1.0000 </r>
       <r>    0.5844    1.0000 </r>
       <r>    0.5844    1.0000 </r>
       <r>    2.9172    0.0000 </r>
       <r>    3.5090    0.0000 </r>
       <r>    3.5090    0.0000 </r>
       <r>    4.6362    0.0000 </r>
       <r>    4.6477    0.0000 </r>
       <r>    4.6477    0.0000 </r>
       <r>    6.2156    0.0000 </r>
       <r>    6.2157    0.0000 </r>
       <r>    6.2514    0.0000 </r>
       <r>    6.5944    0.0000 </r>
       <r>    6.5944    0.0000 </r>
       <r>    6.6549    0.0000 </r>
       <r>    6.8790    0.0000 </r>
       <r>    6.8809    0.0000 </r>
       <r>    6.8810    0.0000 </r>
       <r>    7.0592    0.0000 </r>
       <r>    7.0593    0.0000 </r>
       <r>    7.2075    0.0000 </r>
       <r>    7.2416    0.0000 </r>
       <r>    7.2417    0.0000 </r>
       <r>    7.3128    0.0000 </r>
       <r>    7.4623    0.0000 </r>
       <r>    7.4623    0.0000 </r>
       <r>    7.5235    0.0000 </r>
       <r>    7.6672    0.0000 </r>
       <r>    7.7409    0.0000 </r>
       <r>    7.7409    0.0000 </r>
       <r>    7.8141    0.0000 </r>
       <r>    8.0914    0.0000 </r>
       <r>    8.0914    0.0000 </r>
       <r>    8.4181    0.0000 </r>
       <r>    8.7437    0.0000 </r>
       <r>    8.7437    0.0000 </r>
       <r>    8.7567    0.0000 </r>
       <r>    8.8138    0.0000 </r>
       <r>    8.8216    0.0000 </r>
       <r>    8.8216    0.0000 </r>
       <r>    8.9704    0.0000 </r>
       <r>    8.9704    0.0000 </r>
       <r>    9.1218    0.0000 </r>
       <r>    9.1218    0.0000 </r>
       <r>    9.1744    0.0000 </r>
       <r>    9.2465    0.0000 </r>
       <r>    9.2636    0.0000 </r>
       <r>    9.2637    0.0000 </r>
       <r>    9.4187    0.0000 </r>
      </set>
      <set comment="kpoint 4">
       <r>  -19.7975    1.0000 </r>
       <r>  -19.7926    1.0000 </r>
       <r>  -19.7921    1.0000 </r>
       <r>  -11.2328    1.0000 </r>
       <r>  -11.0779    1.0000 </r>
       <r>  -10.2766    1.0000 </r>
       <r>  -10.2727    1.0000 </r>
       <r>  -10.2727    1.0000 </r>
       <r>  -10.1739    1.0000 </r>
       <r>  -10.1739    1.0000 </r>
       <r>  -10.0661    1.0000 </r>
       <r>  -10.0661    1.0000 </r>
       <r>   -8.7823    1.0000 </r>
       <r>   -8.2537    1.0000 </r>
       <r>   -6.6065    1.0000 </r>
       <r>   -6.6061    1.0000 </r>
       <r>   -6.6061    1.0000 </r>
       <r>   -6.5849    1.0000 </r>
       <r>   -6.5849    1.0000 </r>
       <r>   -6.5849    1.0000 </r>
       <r>   -6.5848    1.0000 </r>
       <r>   -6.5735    1.0000 </r>
       <r>   -6.5688    1.0000 </r>
       <r>   -2.4441    1.0000 </r>
       <r>   -2.0996    1.0000 </r>
       <r>   -2.0996    1.0000 </r>
       <r>   -1.6155    1.0000 </r>
       <r>   -1.6155    1.0000 </r>
       <r>   -1.3525    1.0000 </r>
       <r>   -0.7672    1.0000 </r>
       <r>   -0.7472    1.0000 </r>
       <r>   -0.7472    1.0000 </r>
       <r>   -0.2623    1.0000 </r>
       <r>   -0.1156    1.0000 </r>
       <r>   -0.1156    1.0000 </r>
       <r>   -0.0969    1.0000 </r>
       <r>   -0.0968    1.0000 </r>
       <r>    0.0613    1.0000 </r>
       <r>    0.0614    1.0000 </r>
       <r>    0.1007    1.0000 </r>
       <r>    0.2233    1.0000 </r>
       <r>    0.3010    1.0000 </r>
       <r>    0.3362    1.0000 </r>
       <r>    0.3362    1.0000 </r>
       <r>    0.3424    1.0000 </r>
       <r>    0.4345    1.0000 </r>
       <r>    0.4345    1.0000 </r>
       <r>    0.7671    1.0000 </r>
       <r>    0.7712    1.0000 </r>
       <r>    0.7712    1.0000 </r>
       <r>    2.8405    0.0000 </r>
       <r>    3.0444    0.0000 </r>
       <r>    3.0444    0.0000 </r>
       <r>    4.2194    0.0000 </r>
       <r>    4.8167    0.0000 </r>
       <r>    4.8167    0.0000 </r>
       <r>    5.3733    0.0000 </r>
       <r>    5.4367    0.0000 </r>
       <r>    5.5145    0.0000 </r>
       <r>    6.0260    0.0000 </r>
       <r>    6.0260    0.0000 </r>
       <r>    6.0896    0.0000 </r>
       <r>    6.0896    0.0000 </r>
       <r>    6.4118    0.0000 </r>
       <r>    6.4801    0.0000 </r>
       <r>    6.4801    0.0000 </r>
       <r>    6.5734    0.0000 </r>
       <r>    6.5902    0.0000 </r>
       <r>    6.5902    0.0000 </r>
       <r>    6.6974    0.0000 </r>
       <r>    6.8838    0.0000 </r>
       <r>    6.8838    0.0000 </r>
       <r>    7.6989    0.0000 </r>
       <r>    7.6989    0.0000 </r>
       <r>    7.8235    0.0000 </r>
       <r>    8.3654    0.0000 </r>
       <r>    8.5502    0.0000 </r>
       <r>    8.5502    0.0000 </r>
       <r>    8.8897    0.0000 </r>
       <r>    8.9052    0.0000 </r>
       <r>    8.9052    0.0000 </r>
       <r>    9.0208    0.0000 </r>
       <r>    9.0455    0.0000 </r>
       <r>    9.0455    0.0000 </r>
       <r>    9.1314    0.0000 </r>
       <r>    9.3680    0.0000 </r>
       <r>    9.5794    0.0000 </r>
       <r>    9.5794    0.0000 </r>
       <r>    9.5887    0.0000 </r>
       <r>    9.5962    0.0000 </r>
       <r>    9.5962    0.0000 </r>
       <r>    9.6429    0.0000 </r>
       <r>    9.6429    0.0000 </r>
       <r>   10.3072    0.0000 </r>
       <r>   10.3178    0.0000 </r>
       <r>   10.3635    0.0000 </r>
      </set>
      <set comment="kpoint 5">
       <r>  -19.7975    1.0000 </r>
       <r>  -19.7925    1.0000 </r>
       <r>  -19.7923    1.0000 </r>
       <r>  -11.1773    1.0000 </r>
       <r>  -11.0777    1.0000 </r>
       <r>  -10.3551    1.0000 </r>
       <r>  -10.2575    1.0000 </r>
       <r>  -10.2561    1.0000 </r>
       <r>  -10.2217    1.0000 </r>
       <r>  -10.2097    1.0000 </r>
       <r>  -10.1106    1.0000 </r>
       <r>  -10.0500    1.0000 </r>
       <r>   -8.6117    1.0000 </r>
       <r>   -8.3156    1.0000 </r>
       <r>   -6.5965    1.0000 </r>
       <r>   -6.5944    1.0000 </r>
       <r>   -6.5836    1.0000 </r>
       <r>   -6.5831    1.0000 </r>
       <r>   -6.5801    1.0000 </r>
       <r>   -6.5799    1.0000 </r>
       <r>   -6.5783    1.0000 </r>
       <r>   -6.5703    1.0000 </r>
       <r>   -6.5655    1.0000 </r>
       <r>   -2.2735    1.0000 </r>
       <r>   -2.1856    1.0000 </r>
       <r>   -2.1428    1.0000 </r>
       <r>   -1.7214    1.0000 </r>
       <r>   -1.4053    1.0000 </r>
       <r>   -1.1912    1.0000 </r>
       <r>   -0.7695    1.0000 </r>
       <r>   -0.6156    1.0000 </r>
       <r>   -0.5854    1.0000 </r>
       <r>   -0.5469    1.0000 </r>
       <r>   -0.4212    1.0000 </r>
       <r>   -0.2221    1.0000 </r>
       <r>   -0.1792    1.0000 </r>
       <r>   -0.1422    1.0000 </r>
       <r>   -0.0173    1.0000 </r>
       <r>   -0.0149    1.0000 </r>
       <r>    0.1145    1.0000 </r>
       <r>    0.1384    1.0000 </r>
       <r>    0.1523    1.0000 </r>
       <r>    0.2215    1.0000 </r>
       <r>    0.2400    1.0000 </r>
       <r>    0.4198    1.0000 </r>
       <r>    0.4629    1.0000 </r>
       <r>    0.5051    1.0000 </r>
       <r>    0.5270    1.0000 </r>
       <r>    0.5471    1.0000 </r>
       <r>    0.6790    1.0000 </r>
       <r>    2.8596    0.0000 </r>
       <r>    3.4357    0.0000 </r>
       <r>    3.4387    0.0000 </r>
       <r>    4.4641    0.0000 </r>
       <r>    4.6094    0.0000 </r>
       <r>    4.6868    0.0000 </r>
       <r>    5.8846    0.0000 </r>
       <r>    5.9273    0.0000 </r>
       <r>    5.9657    0.0000 </r>
       <r>    6.3348    0.0000 </r>
       <r>    6.3721    0.0000 </r>
       <r>    6.4890    0.0000 </r>
       <r>    6.5492    0.0000 </r>
       <r>    6.6040    0.0000 </r>
       <r>    6.6305    0.0000 </r>
       <r>    6.6983    0.0000 </r>
       <r>    6.8021    0.0000 </r>
       <r>    6.9374    0.0000 </r>
       <r>    6.9763    0.0000 </r>
       <r>    7.1832    0.0000 </r>
       <r>    7.3364    0.0000 </r>
       <r>    7.3405    0.0000 </r>
       <r>    7.4568    0.0000 </r>
       <r>    7.5471    0.0000 </r>
       <r>    7.7553    0.0000 </r>
       <r>    7.8925    0.0000 </r>
       <r>    8.0611    0.0000 </r>
       <r>    8.2284    0.0000 </r>
       <r>    8.5341    0.0000 </r>
       <r>    8.5421    0.0000 </r>
       <r>    8.6098    0.0000 </r>
       <r>    8.6859    0.0000 </r>
       <r>    8.7156    0.0000 </r>
       <r>    8.8129    0.0000 </r>
       <r>    8.8198    0.0000 </r>
       <r>    9.0610    0.0000 </r>
       <r>    9.1480    0.0000 </r>
       <r>    9.1527    0.0000 </r>
       <r>    9.2642    0.0000 </r>
       <r>    9.2718    0.0000 </r>
       <r>    9.4422    0.0000 </r>
       <r>    9.4803    0.0000 </r>
       <r>    9.6117    0.0000 </r>
       <r>    9.6161    0.0000 </r>
       <r>    9.6711    0.0000 </r>
       <r>    9.9650    0.0000 </r>
      </set>
      <set comment="kpoint 6">
       <r>  -19.7975    1.0000 </r>
       <r>  -19.7924    1.0000 </r>
       <r>  -19.7924    1.0000 </r>
       <r>  -11.1130    1.0000 </r>
       <r>  -11.1130    1.0000 </r>
       <r>  -10.3699    1.0000 </r>
       <r>  -10.2788    1.0000 </r>
       <r>  -10.2757    1.0000 </r>
       <r>  -10.2757    1.0000 </r>
       <r>  -10.1373    1.0000 </r>
       <r>  -10.1373    1.0000 </r>
       <r>  -10.0625    1.0000 </r>
       <r>   -8.4386    1.0000 </r>
       <r>   -8.4386    1.0000 </r>
       <r>   -6.5866    1.0000 </r>
       <r>   -6.5853    1.0000 </r>
       <r>   -6.5853    1.0000 </r>
       <r>   -6.5760    1.0000 </r>
       <r>   -6.5747    1.0000 </r>
       <r>   -6.5747    1.0000 </r>
       <r>   -6.5739    1.0000 </r>
       <r>   -6.5704    1.0000 </r>
       <r>   -6.5704    1.0000 </r>
       <r>   -2.3394    1.0000 </r>
       <r>   -2.1031    1.0000 </r>
       <r>   -2.1031    1.0000 </r>
       <r>   -1.5379    1.0000 </r>
       <r>   -1.3705    1.0000 </r>
       <r>   -1.3705    1.0000 </r>
       <r>   -0.6334    1.0000 </r>
       <r>   -0.6334    1.0000 </r>
       <r>   -0.6270    1.0000 </r>
       <r>   -0.5369    1.0000 </r>
       <r>   -0.4207    1.0000 </r>
       <r>   -0.4077    1.0000 </r>
       <r>   -0.4077    1.0000 </r>
       <r>   -0.1090    1.0000 </r>
       <r>   -0.1090    1.0000 </r>
       <r>    0.0228    1.0000 </r>
       <r>    0.1344    1.0000 </r>
       <r>    0.2062    1.0000 </r>
       <r>    0.2062    1.0000 </r>
       <r>    0.2806    1.0000 </r>
       <r>    0.2807    1.0000 </r>
       <r>    0.3295    1.0000 </r>
       <r>    0.3812    1.0000 </r>
       <r>    0.3812    1.0000 </r>
       <r>    0.4019    1.0000 </r>
       <r>    0.5350    1.0000 </r>
       <r>    0.5350    1.0000 </r>
       <r>    3.3804    0.0000 </r>
       <r>    3.3804    0.0000 </r>
       <r>    3.4596    0.0000 </r>
       <r>    4.0922    0.0000 </r>
       <r>    4.7689    0.0000 </r>
       <r>    4.7689    0.0000 </r>
       <r>    6.2758    0.0000 </r>
       <r>    6.2759    0.0000 </r>
       <r>    6.2919    0.0000 </r>
       <r>    6.5370    0.0000 </r>
       <r>    6.5370    0.0000 </r>
       <r>    6.5671    0.0000 </r>
       <r>    6.8744    0.0000 </r>
       <r>    6.8744    0.0000 </r>
       <r>    6.9828    0.0000 </r>
       <r>    7.1033    0.0000 </r>
       <r>    7.1033    0.0000 </r>
       <r>    7.2571    0.0000 </r>
       <r>    7.3026    0.0000 </r>
       <r>    7.3030    0.0000 </r>
       <r>    7.3030    0.0000 </r>
       <r>    7.4032    0.0000 </r>
       <r>    7.4235    0.0000 </r>
       <r>    7.4235    0.0000 </r>
       <r>    7.6041    0.0000 </r>
       <r>    7.6886    0.0000 </r>
       <r>    7.6886    0.0000 </r>
       <r>    8.1122    0.0000 </r>
       <r>    8.1123    0.0000 </r>
       <r>    8.1147    0.0000 </r>
       <r>    8.2858    0.0000 </r>
       <r>    8.4244    0.0000 </r>
       <r>    8.4244    0.0000 </r>
       <r>    8.6213    0.0000 </r>
       <r>    8.6559    0.0000 </r>
       <r>    8.6559    0.0000 </r>
       <r>    8.7847    0.0000 </r>
       <r>    8.7847    0.0000 </r>
       <r>    8.8645    0.0000 </r>
       <r>    9.3351    0.0000 </r>
       <r>    9.3967    0.0000 </r>
       <r>    9.4663    0.0000 </r>
       <r>    9.4663    0.0000 </r>
       <r>    9.7511    0.0000 </r>
       <r>   10.0404    0.0000 </r>
       <r>   10.0416    0.0000 </r>
      </set>
     </set>
    </set>
   </array>
  </eigenvalues>
  <separator name="orbital magnetization" >
   <v name="MAGDIPOLOUT">      0.00000000      0.00000000      0.00000000</v>
  </separator>
  <dos>
   <i name="efermi">      0.80485705 </i>
   <total>
    <array>
     <dimension dim="1">gridpoints</dimension>
     <dimension dim="2">spin</dimension>
     <field>energy</field>
     <field>total</field>
     <field>integrated</field>
     <set>
      <set comment="spin 1">
       <r>   -21.7975     0.0000     0.0000 </r>
       <r>   -21.6831     0.0000     0.0000 </r>
       <r>   -21.5687     0.0000     0.0000 </r>
       <r>   -21.4542     0.0000     0.0000 </r>
       <r>   -21.3398     0.0000     0.0000 </r>
       <r>   -21.2253     0.0000     0.0000 </r>
       <r>   -21.1109     0.0000     0.0000 </r>
       <r>   -20.9964     0.0000     0.0000 </r>
       <r>   -20.8820     0.0000     0.0000 </r>
       <r>   -20.7676     0.0000     0.0000 </r>
       <r>   -20.6531     0.0000     0.0000 </r>
       <r>   -20.5387     0.0000     0.0000 </r>
       <r>   -20.4242     0.0000     0.0000 </r>
       <r>   -20.3098     0.0000     0.0000 </r>
       <r>   -20.1953     0.0000     0.0000 </r>
       <r>   -20.0809     0.0000     0.0000 </r>
       <r>   -19.9665     0.0000     0.0000 </r>
       <r>   -19.8520     0.0000     0.0000 </r>
       <r>   -19.7376     0.0000     3.0000 </r>
       <r>   -19.6231     0.0000     3.0000 </r>
       <r>   -19.5087     0.0000     3.0000 </r>
       <r>   -19.3943     0.0000     3.0000 </r>
       <r>   -19.2798     0.0000     3.0000 </r>
       <r>   -19.1654     0.0000     3.0000 </r>
       <r>   -19.0509     0.0000     3.0000 </r>
       <r>   -18.9365     0.0000     3.0000 </r>
       <r>   -18.8220     0.0000     3.0000 </r>
       <r>   -18.7076     0.0000     3.0000 </r>
       <r>   -18.5932     0.0000     3.0000 </r>
       <r>   -18.4787     0.0000     3.0000 </r>
       <r>   -18.3643     0.0000     3.0000 </r>
       <r>   -18.2498     0.0000     3.0000 </r>
       <r>   -18.1354     0.0000     3.0000 </r>
       <r>   -18.0209     0.0000     3.0000 </r>
       <r>   -17.9065     0.0000     3.0000 </r>
       <r>   -17.7921     0.0000     3.0000 </r>
       <r>   -17.6776     0.0000     3.0000 </r>
       <r>   -17.5632     0.0000     3.0000 </r>
       <r>   -17.4487     0.0000     3.0000 </r>
       <r>   -17.3343     0.0000     3.0000 </r>
       <r>   -17.2198     0.0000     3.0000 </r>
       <r>   -17.1054     0.0000     3.0000 </r>
       <r>   -16.9910     0.0000     3.0000 </r>
       <r>   -16.8765     0.0000     3.0000 </r>
       <r>   -16.7621     0.0000     3.0000 </r>
       <r>   -16.6476     0.0000     3.0000 </r>
       <r>   -16.5332     0.0000     3.0000 </r>
       <r>   -16.4187     0.0000     3.0000 </r>
       <r>   -16.3043     0.0000     3.0000 </r>
       <r>   -16.1899     0.0000     3.0000 </r>
       <r>   -16.0754     0.0000     3.0000 </r>
       <r>   -15.9610     0.0000     3.0000 </r>
       <r>   -15.8465     0.0000     3.0000 </r>
       <r>   -15.7321     0.0000     3.0000 </r>
       <r>   -15.6176     0.0000     3.0000 </r>
       <r>   -15.5032     0.0000     3.0000 </r>
       <r>   -15.3888     0.0000     3.0000 </r>
       <r>   -15.2743     0.0000     3.0000 </r>
       <r>   -15.1599     0.0000     3.0000 </r>
       <r>   -15.0454     0.0000     3.0000 </r>
       <r>   -14.9310     0.0000     3.0000 </r>
       <r>   -14.8165     0.0000     3.0000 </r>
       <r>   -14.7021     0.0000     3.0000 </r>
       <r>   -14.5877     0.0000     3.0000 </r>
       <r>   -14.4732     0.0000     3.0000 </r>
       <r>   -14.3588     0.0000     3.0000 </r>
       <r>   -14.2443     0.0000     3.0000 </r>
       <r>   -14.1299     0.0000     3.0000 </r>
       <r>   -14.0155     0.0000     3.0000 </r>
       <r>   -13.9010     0.0000     3.0000 </r>
       <r>   -13.7866     0.0000     3.0000 </r>
       <r>   -13.6721     0.0000     3.0000 </r>
       <r>   -13.5577     0.0000     3.0000 </r>
       <r>   -13.4432     0.0000     3.0000 </r>
       <r>   -13.3288     0.0000     3.0000 </r>
       <r>   -13.2144     0.0000     3.0000 </r>
       <r>   -13.0999     0.0000     3.0000 </r>
       <r>   -12.9855     0.0000     3.0000 </r>
       <r>   -12.8710     0.0000     3.0000 </r>
       <r>   -12.7566     0.0000     3.0000 </r>
       <r>   -12.6421     0.0000     3.0000 </r>
       <r>   -12.5277     0.0000     3.0000 </r>
       <r>   -12.4133     0.0000     3.0000 </r>
       <r>   -12.2988     0.0000     3.0000 </r>
       <r>   -12.1844     0.0000     3.0000 </r>
       <r>   -12.0699     0.0000     3.0000 </r>
       <r>   -11.9555     0.0000     3.0000 </r>
       <r>   -11.8410     0.0000     3.0000 </r>
       <r>   -11.7266     0.0000     3.0000 </r>
       <r>   -11.6122     0.0000     3.0000 </r>
       <r>   -11.4977     0.0000     3.0000 </r>
       <r>   -11.3833     0.0000     3.0000 </r>
       <r>   -11.2688     0.0032     3.0000 </r>
       <r>   -11.1544     9.6916     3.7979 </r>
       <r>   -11.0399     5.4549     4.9475 </r>
       <r>   -10.9255     0.0000     5.0000 </r>
       <r>   -10.8111     0.0000     5.0000 </r>
       <r>   -10.6966     0.0000     5.0000 </r>
       <r>   -10.5822     0.0000     5.0000 </r>
       <r>   -10.4677     0.0000     5.0000 </r>
       <r>   -10.3533    27.9979     5.4087 </r>
       <r>   -10.2388    43.0970     8.3028 </r>
       <r>   -10.1244    24.9482    10.3544 </r>
       <r>   -10.0100     0.0000    12.0000 </r>
       <r>    -9.8955     0.0000    12.0000 </r>
       <r>    -9.7811     0.0000    12.0000 </r>
       <r>    -9.6666     0.0000    12.0000 </r>
       <r>    -9.5522     0.0000    12.0000 </r>
       <r>    -9.4377     0.0000    12.0000 </r>
       <r>    -9.3233     0.0000    12.0000 </r>
       <r>    -9.2089     0.0000    12.0000 </r>
       <r>    -9.0944     0.0000    12.0000 </r>
       <r>    -8.9800     0.0000    12.0000 </r>
       <r>    -8.8655     0.0000    12.0000 </r>
       <r>    -8.7511     0.1505    12.0016 </r>
       <r>    -8.6367     2.9013    12.1516 </r>
       <r>    -8.5222     5.1230    12.7770 </r>
       <r>    -8.4078     3.8517    13.0557 </r>
       <r>    -8.2933     2.5896    13.9658 </r>
       <r>    -8.1789     0.0000    14.0000 </r>
       <r>    -8.0644     0.0000    14.0000 </r>
       <r>    -7.9500     0.0000    14.0000 </r>
       <r>    -7.8356     0.0000    14.0000 </r>
       <r>    -7.7211     0.0000    14.0000 </r>
       <r>    -7.6067     0.0000    14.0000 </r>
       <r>    -7.4922     0.0000    14.0000 </r>
       <r>    -7.3778     0.0000    14.0000 </r>
       <r>    -7.2633     0.0000    14.0000 </r>
       <r>    -7.1489     0.0000    14.0000 </r>
       <r>    -7.0345     0.0000    14.0000 </r>
       <r>    -6.9200     0.0000    14.0000 </r>
       <r>    -6.8056     0.0000    14.0000 </r>
       <r>    -6.6911     0.0000    14.0000 </r>
       <r>    -6.5767   377.6640    20.4564 </r>
       <r>    -6.4622     0.0000    23.0000 </r>
       <r>    -6.3478     0.0000    23.0000 </r>
       <r>    -6.2334     0.0000    23.0000 </r>
       <r>    -6.1189     0.0000    23.0000 </r>
       <r>    -6.0045     0.0000    23.0000 </r>
       <r>    -5.8900     0.0000    23.0000 </r>
       <r>    -5.7756     0.0000    23.0000 </r>
       <r>    -5.6611     0.0000    23.0000 </r>
       <r>    -5.5467     0.0000    23.0000 </r>
       <r>    -5.4323     0.0000    23.0000 </r>
       <r>    -5.3178     0.0000    23.0000 </r>
       <r>    -5.2034     0.0000    23.0000 </r>
       <r>    -5.0889     0.0000    23.0000 </r>
       <r>    -4.9745     0.0000    23.0000 </r>
       <r>    -4.8600     0.0000    23.0000 </r>
       <r>    -4.7456     0.0000    23.0000 </r>
       <r>    -4.6312     0.0000    23.0000 </r>
       <r>    -4.5167     0.0000    23.0000 </r>
       <r>    -4.4023     0.0000    23.0000 </r>
       <r>    -4.2878     0.0000    23.0000 </r>
       <r>    -4.1734     0.0000    23.0000 </r>
       <r>    -4.0590     0.0000    23.0000 </r>
       <r>    -3.9445     0.0000    23.0000 </r>
       <r>    -3.8301     0.0000    23.0000 </r>
       <r>    -3.7156     0.0000    23.0000 </r>
       <r>    -3.6012     0.0000    23.0000 </r>
       <r>    -3.4867     0.0000    23.0000 </r>
       <r>    -3.3723     0.0000    23.0000 </r>
       <r>    -3.2579     0.0000    23.0000 </r>
       <r>    -3.1434     0.0000    23.0000 </r>
       <r>    -3.0290     0.0000    23.0000 </r>
       <r>    -2.9145     0.0000    23.0000 </r>
       <r>    -2.8001     0.0000    23.0000 </r>
       <r>    -2.6856     0.0000    23.0000 </r>
       <r>    -2.5712     0.0000    23.0000 </r>
       <r>    -2.4568     0.0000    23.0000 </r>
       <r>    -2.3423     9.1087    23.2222 </r>
       <r>    -2.2279     2.1937    23.9566 </r>
       <r>    -2.1134    31.9677    25.8724 </r>
       <r>    -1.9990     0.0000    26.0000 </r>
       <r>    -1.8845     0.1200    26.0018 </r>
       <r>    -1.7701     1.4849    26.0791 </r>
       <r>    -1.6557     5.6800    26.4666 </r>
       <r>    -1.5412     1.4197    26.9877 </r>
       <r>    -1.4268     8.6612    27.2720 </r>
       <r>    -1.3123     4.2907    28.0163 </r>
       <r>    -1.1979     2.1110    28.9929 </r>
       <r>    -1.0834     0.0000    29.0000 </r>
       <r>    -0.9690     0.0000    29.0000 </r>
       <r>    -0.8546     3.5153    29.0414 </r>
       <r>    -0.7401     3.8444    29.8732 </r>
       <r>    -0.6257    15.6619    31.0848 </r>
       <r>    -0.5112     9.6368    32.3033 </r>
       <r>    -0.3968    11.9781    33.3291 </r>
       <r>    -0.2823     9.5953    34.6355 </r>
       <r>    -0.1679    15.1422    35.6343 </r>
       <r>    -0.0535     7.7638    37.1503 </r>
       <r>     0.0610    12.4436    39.0326 </r>
       <r>     0.1754    29.7861    41.2772 </r>
[...]
        <r>  0.0001  0.0007  0.0085  0.0019  0.0012  0.0008  0.0030  0.0012  0.0007 </r>
        <r>  0.0001  0.0001  0.0039  0.0015  0.0001  0.0008  0.0007  0.0004  0.0008 </r>
        <r>  0.0001  0.0010  0.0039  0.0006  0.0004  0.0009  0.0008  0.0002  0.0004 </r>
       </set>
       <set comment="band 83">
        <r>  0.0000  0.0118  0.0000  0.0040  0.0196  0.0066  0.0000  0.0196  0.0066 </r>
        <r>  0.0003  0.0000  0.0053  0.0000  0.0004  0.0031  0.0001  0.0031  0.0004 </r>
        <r>  0.0003  0.0000  0.0053  0.0000  0.0004  0.0031  0.0001  0.0031  0.0004 </r>
        <r>  0.0000  0.0003  0.0013  0.0003  0.0037  0.0017  0.0169  0.0017  0.0037 </r>
        <r>  0.0000  0.0003  0.0013  0.0003  0.0037  0.0017  0.0167  0.0017  0.0037 </r>
        <r>  0.0000  0.0096  0.0033  0.0012  0.0073  0.0005  0.0000  0.0020  0.0002 </r>
        <r>  0.0000  0.0062  0.0033  0.0046  0.0031  0.0008  0.0000  0.0016  0.0045 </r>
        <r>  0.0000  0.0137  0.0000  0.0046  0.0134  0.0008  0.0001  0.0023  0.0045 </r>
        <r>  0.0002  0.0007  0.0024  0.0006  0.0002  0.0002  0.0000  0.0006  0.0003 </r>
        <r>  0.0001  0.0013  0.0070  0.0010  0.0013  0.0003  0.0022  0.0014  0.0002 </r>
        <r>  0.0001  0.0020  0.0069  0.0003  0.0004  0.0012  0.0022  0.0005  0.0011 </r>
        <r>  0.0002  0.0007  0.0023  0.0006  0.0002  0.0002  0.0000  0.0006  0.0003 </r>
        <r>  0.0001  0.0013  0.0069  0.0010  0.0013  0.0003  0.0022  0.0014  0.0002 </r>
        <r>  0.0001  0.0020  0.0069  0.0003  0.0004  0.0012  0.0022  0.0005  0.0011 </r>
       </set>
       <set comment="band 84">
        <r>  0.0000  0.0000  0.0019  0.0000  0.0000  0.0000  0.0000  0.0000  0.0000 </r>
        <r>  0.0000  0.0017  0.0000  0.0017  0.0005  0.0000  0.0000  0.0000  0.0005 </r>
        <r>  0.0000  0.0017  0.0000  0.0017  0.0005  0.0000  0.0000  0.0000  0.0005 </r>
        <r>  0.0000  0.0009  0.0000  0.0009  0.0061  0.0026  0.0000  0.0026  0.0061 </r>
        <r>  0.0000  0.0009  0.0000  0.0009  0.0061  0.0026  0.0000  0.0026  0.0061 </r>
        <r>  0.0000  0.0007  0.0057  0.0020  0.0010  0.0005  0.0000  0.0002  0.0030 </r>
        <r>  0.0000  0.0026  0.0057  0.0000  0.0040  0.0000  0.0000  0.0006  0.0000 </r>
        <r>  0.0000  0.0007  0.0057  0.0020  0.0010  0.0005  0.0000  0.0002  0.0030 </r>
        <r>  0.0007  0.0032  0.0006  0.0072  0.0069  0.0028  0.0001  0.0021  0.0029 </r>
        <r>  0.0007  0.0032  0.0006  0.0072  0.0069  0.0028  0.0001  0.0021  0.0029 </r>
        <r>  0.0007  0.0092  0.0006  0.0012  0.0009  0.0017  0.0001  0.0032  0.0089 </r>
        <r>  0.0007  0.0032  0.0006  0.0072  0.0069  0.0028  0.0001  0.0021  0.0029 </r>
        <r>  0.0007  0.0032  0.0006  0.0072  0.0069  0.0028  0.0001  0.0021  0.0029 </r>
        <r>  0.0007  0.0092  0.0006  0.0012  0.0009  0.0017  0.0001  0.0032  0.0089 </r>
       </set>
       <set comment="band 85">
        <r>  0.0000  0.0007  0.0000  0.0021  0.0072  0.0042  0.0000  0.0014  0.0222 </r>
        <r>  0.0003  0.0037  0.0053  0.0037  0.0062  0.0063  0.0017  0.0063  0.0062 </r>
        <r>  0.0004  0.0031  0.0063  0.0031  0.0052  0.0053  0.0021  0.0053  0.0052 </r>
        <r>  0.0000  0.0022  0.0002  0.0022  0.0022  0.0001  0.0028  0.0001  0.0022 </r>
        <r>  0.0000  0.0018  0.0002  0.0018  0.0019  0.0001  0.0033  0.0001  0.0019 </r>
        <r>  0.0013  0.0033  0.0026  0.0005  0.0004  0.0000  0.0010  0.0023  0.0000 </r>
        <r>  0.0013  0.0022  0.0025  0.0015  0.0000  0.0019  0.0010  0.0004  0.0004 </r>
        <r>  0.0000  0.0023  0.0102  0.0068  0.0000  0.0011  0.0000  0.0004  0.0001 </r>
        <r>  0.0000  0.0017  0.0010  0.0011  0.0011  0.0014  0.0032  0.0018  0.0019 </r>
        <r>  0.0000  0.0031  0.0012  0.0002  0.0015  0.0007  0.0013  0.0004  0.0073 </r>
        <r>  0.0000  0.0003  0.0012  0.0030  0.0066  0.0005  0.0012  0.0005  0.0022 </r>
        <r>  0.0000  0.0021  0.0012  0.0012  0.0011  0.0013  0.0035  0.0017  0.0014 </r>
        <r>  0.0000  0.0034  0.0014  0.0003  0.0015  0.0007  0.0015  0.0003  0.0069 </r>
        <r>  0.0000  0.0002  0.0014  0.0034  0.0060  0.0005  0.0015  0.0004  0.0025 </r>
       </set>
       <set comment="band 86">
        <r>  0.0000  0.0021  0.0000  0.0007  0.0222  0.0014  0.0000  0.0042  0.0072 </r>
        <r>  0.0004  0.0031  0.0063  0.0031  0.0052  0.0053  0.0021  0.0053  0.0052 </r>
        <r>  0.0003  0.0037  0.0053  0.0037  0.0062  0.0063  0.0017  0.0063  0.0062 </r>
        <r>  0.0000  0.0018  0.0002  0.0018  0.0019  0.0001  0.0033  0.0001  0.0019 </r>
        <r>  0.0000  0.0022  0.0002  0.0022  0.0022  0.0001  0.0028  0.0001  0.0022 </r>
        <r>  0.0004  0.0005  0.0076  0.0068  0.0000  0.0017  0.0003  0.0000  0.0002 </r>
        <r>  0.0004  0.0068  0.0077  0.0005  0.0001  0.0006  0.0003  0.0011  0.0001 </r>
        <r>  0.0017  0.0015  0.0000  0.0005  0.0004  0.0006  0.0013  0.0019  0.0001 </r>
        <r>  0.0000  0.0028  0.0015  0.0010  0.0041  0.0002  0.0009  0.0001  0.0063 </r>
        <r>  0.0000  0.0015  0.0013  0.0019  0.0037  0.0008  0.0028  0.0015  0.0008 </r>
        <r>  0.0000  0.0006  0.0013  0.0028  0.0030  0.0015  0.0029  0.0009  0.0015 </r>
        <r>  0.0000  0.0025  0.0013  0.0009  0.0041  0.0003  0.0006  0.0001  0.0067 </r>
        <r>  0.0000  0.0011  0.0011  0.0018  0.0037  0.0009  0.0026  0.0016  0.0013 </r>
        <r>  0.0000  0.0006  0.0011  0.0023  0.0037  0.0015  0.0026  0.0009  0.0012 </r>
       </set>
       <set comment="band 87">
        <r>  0.0000  0.0007  0.0000  0.0002  0.0004  0.0007  0.0000  0.0021  0.0001 </r>
        <r>  0.0001  0.0022  0.0000  0.0022  0.0013  0.0004  0.0006  0.0004  0.0013 </r>
        <r>  0.0001  0.0022  0.0000  0.0022  0.0013  0.0004  0.0006  0.0004  0.0013 </r>
        <r>  0.0013  0.0007  0.0002  0.0007  0.0001  0.0009  0.0001  0.0009  0.0001 </r>
        <r>  0.0013  0.0007  0.0002  0.0007  0.0001  0.0009  0.0001  0.0009  0.0001 </r>
        <r>  0.0008  0.0000  0.0032  0.0002  0.0006  0.0064  0.0002  0.0019  0.0020 </r>
        <r>  0.0008  0.0001  0.0032  0.0000  0.0026  0.0000  0.0002  0.0083  0.0000 </r>
        <r>  0.0031  0.0001  0.0000  0.0000  0.0000  0.0000  0.0007  0.0000  0.0000 </r>
        <r>  0.0034  0.0014  0.0017  0.0011  0.0001  0.0094  0.0000  0.0037  0.0001 </r>
        <r>  0.0013  0.0019  0.0017  0.0001  0.0021  0.0041  0.0011  0.0001  0.0075 </r>
        <r>  0.0013  0.0007  0.0017  0.0013  0.0090  0.0006  0.0011  0.0036  0.0006 </r>
        <r>  0.0034  0.0014  0.0017  0.0011  0.0001  0.0094  0.0000  0.0037  0.0001 </r>
        <r>  0.0013  0.0019  0.0017  0.0001  0.0021  0.0040  0.0011  0.0001  0.0075 </r>
        <r>  0.0013  0.0007  0.0017  0.0013  0.0090  0.0006  0.0011  0.0036  0.0006 </r>
       </set>
       <set comment="band 88">
        <r>  0.0000  0.0002  0.0000  0.0007  0.0001  0.0021  0.0000  0.0007  0.0004 </r>
        <r>  0.0001  0.0022  0.0000  0.0022  0.0013  0.0004  0.0006  0.0004  0.0013 </r>
        <r>  0.0001  0.0022  0.0000  0.0022  0.0013  0.0004  0.0006  0.0004  0.0013 </r>
        <r>  0.0013  0.0007  0.0002  0.0007  0.0001  0.0009  0.0001  0.0009  0.0001 </r>
        <r>  0.0013  0.0007  0.0002  0.0007  0.0001  0.0009  0.0001  0.0009  0.0001 </r>
        <r>  0.0023  0.0002  0.0011  0.0000  0.0003  0.0019  0.0005  0.0009  0.0006 </r>
        <r>  0.0023  0.0000  0.0011  0.0001  0.0009  0.0000  0.0005  0.0028  0.0000 </r>
        <r>  0.0000  0.0000  0.0043  0.0001  0.0009  0.0083  0.0000  0.0028  0.0026 </r>
        <r>  0.0006  0.0011  0.0017  0.0008  0.0035  0.0006  0.0015  0.0005  0.0091 </r>
        <r>  0.0027  0.0005  0.0017  0.0018  0.0016  0.0060  0.0004  0.0041  0.0018 </r>
        <r>  0.0027  0.0009  0.0017  0.0015  0.0031  0.0008  0.0004  0.0094  0.0003 </r>
        <r>  0.0006  0.0011  0.0017  0.0008  0.0035  0.0007  0.0015  0.0005  0.0091 </r>
        <r>  0.0027  0.0005  0.0017  0.0018  0.0016  0.0060  0.0004  0.0041  0.0018 </r>
        <r>  0.0027  0.0009  0.0017  0.0015  0.0031  0.0008  0.0004  0.0094  0.0003 </r>
       </set>
       <set comment="band 89">
        <r>  0.0000  0.0000  0.0299  0.0000  0.0000  0.0000  0.0000  0.0000  0.0000 </r>
        <r>  0.0000  0.0023  0.0000  0.0023  0.0006  0.0001  0.0000  0.0001  0.0006 </r>
        <r>  0.0000  0.0023  0.0000  0.0023  0.0006  0.0001  0.0000  0.0001  0.0006 </r>
        <r>  0.0000  0.0008  0.0000  0.0008  0.0006  0.0000  0.0000  0.0000  0.0006 </r>
        <r>  0.0000  0.0008  0.0000  0.0008  0.0006  0.0000  0.0000  0.0000  0.0006 </r>
        <r>  0.0000  0.0005  0.0000  0.0015  0.0008  0.0000  0.0000  0.0000  0.0024 </r>
        <r>  0.0000  0.0020  0.0000  0.0000  0.0031  0.0000  0.0000  0.0000  0.0000 </r>
        <r>  0.0000  0.0005  0.0000  0.0015  0.0008  0.0000  0.0000  0.0000  0.0024 </r>
        <r>  0.0000  0.0010  0.0076  0.0010  0.0037  0.0033  0.0000  0.0071  0.0012 </r>
        <r>  0.0000  0.0010  0.0076  0.0010  0.0037  0.0033  0.0000  0.0071  0.0012 </r>
        <r>  0.0000  0.0009  0.0076  0.0010  0.0000  0.0090  0.0000  0.0014  0.0050 </r>
        <r>  0.0000  0.0010  0.0076  0.0010  0.0037  0.0033  0.0000  0.0071  0.0012 </r>
        <r>  0.0000  0.0010  0.0076  0.0010  0.0037  0.0033  0.0000  0.0071  0.0012 </r>
        <r>  0.0000  0.0009  0.0076  0.0010  0.0000  0.0090  0.0000  0.0014  0.0050 </r>
       </set>
       <set comment="band 90">
        <r>  0.0000  0.0000  0.0000  0.0000  0.0000  0.0000  0.0641  0.0000  0.0000 </r>
        <r>  0.0000  0.0010  0.0000  0.0010  0.0001  0.0033  0.0000  0.0033  0.0001 </r>
        <r>  0.0000  0.0010  0.0000  0.0010  0.0001  0.0033  0.0000  0.0033  0.0001 </r>
        <r>  0.0000  0.0004  0.0000  0.0004  0.0005  0.0199  0.0000  0.0200  0.0005 </r>
        <r>  0.0000  0.0004  0.0000  0.0004  0.0005  0.0199  0.0000  0.0199  0.0005 </r>
        <r>  0.0013  0.0001  0.0000  0.0000  0.0001  0.0005  0.0030  0.0016  0.0000 </r>
        <r>  0.0013  0.0000  0.0000  0.0001  0.0000  0.0022  0.0030  0.0000  0.0001 </r>
        <r>  0.0013  0.0001  0.0000  0.0000  0.0001  0.0005  0.0030  0.0016  0.0000 </r>
        <r>  0.0010  0.0001  0.0021  0.0001  0.0084  0.0007  0.0052  0.0003  0.0043 </r>
        <r>  0.0010  0.0001  0.0021  0.0001  0.0084  0.0007  0.0052  0.0003  0.0043 </r>
        <r>  0.0010  0.0001  0.0021  0.0002  0.0022  0.0001  0.0052  0.0009  0.0105 </r>
        <r>  0.0010  0.0001  0.0021  0.0001  0.0084  0.0007  0.0052  0.0003  0.0043 </r>
        <r>  0.0010  0.0001  0.0021  0.0001  0.0084  0.0007  0.0052  0.0003  0.0043 </r>
        <r>  0.0010  0.0001  0.0021  0.0002  0.0022  0.0001  0.0052  0.0009  0.0105 </r>
       </set>
       <set comment="band 91">
        <r>  0.0000  0.0000  0.0003  0.0000  0.0000  0.0000  0.0000  0.0000  0.0000 </r>
        <r>  0.0000  0.0017  0.0000  0.0017  0.0001  0.0006  0.0000  0.0006  0.0001 </r>
        <r>  0.0000  0.0017  0.0000  0.0017  0.0001  0.0006  0.0000  0.0006  0.0001 </r>
        <r>  0.0000  0.0173  0.0000  0.0173  0.0008  0.0029  0.0000  0.0029  0.0008 </r>
        <r>  0.0000  0.0173  0.0000  0.0173  0.0008  0.0029  0.0000  0.0029  0.0009 </r>
        <r>  0.0000  0.0000  0.0000  0.0000  0.0024  0.0023  0.0000  0.0008  0.0071 </r>
        <r>  0.0000  0.0000  0.0000  0.0000  0.0094  0.0000  0.0000  0.0030  0.0000 </r>
        <r>  0.0000  0.0000  0.0000  0.0000  0.0024  0.0023  0.0000  0.0007  0.0071 </r>
        <r>  0.0046  0.0026  0.0052  0.0078  0.0000  0.0024  0.0002  0.0011  0.0000 </r>
        <r>  0.0046  0.0027  0.0052  0.0078  0.0000  0.0024  0.0002  0.0011  0.0000 </r>
        <r>  0.0046  0.0103  0.0052  0.0001  0.0000  0.0004  0.0002  0.0031  0.0000 </r>
        <r>  0.0046  0.0026  0.0051  0.0078  0.0000  0.0024  0.0002  0.0011  0.0000 </r>
        <r>  0.0046  0.0027  0.0051  0.0078  0.0000  0.0024  0.0002  0.0011  0.0000 </r>
        <r>  0.0046  0.0103  0.0051  0.0001  0.0000  0.0004  0.0002  0.0031  0.0000 </r>
       </set>
       <set comment="band 92">
        <r>  0.0000  0.0027  0.0000  0.0037  0.0012  0.0124  0.0000  0.0090  0.0017 </r>
        <r>  0.0000  0.0003  0.0073  0.0003  0.0056  0.0037  0.0002  0.0037  0.0056 </r>
        <r>  0.0000  0.0003  0.0065  0.0003  0.0063  0.0041  0.0002  0.0041  0.0062 </r>
        <r>  0.0000  0.0001  0.0000  0.0001  0.0027  0.0019  0.0110  0.0019  0.0027 </r>
        <r>  0.0000  0.0001  0.0000  0.0001  0.0030  0.0021  0.0099  0.0021  0.0030 </r>
        <r>  0.0000  0.0014  0.0000  0.0002  0.0005  0.0005  0.0190  0.0020  0.0003 </r>
        <r>  0.0000  0.0001  0.0000  0.0011  0.0000  0.0005  0.0124  0.0066  0.0005 </r>
        <r>  0.0000  0.0000  0.0000  0.0003  0.0001  0.0119  0.0007  0.0032  0.0000 </r>
        <r>  0.0000  0.0002  0.0013  0.0002  0.0007  0.0022  0.0042  0.0011  0.0031 </r>
        <r>  0.0001  0.0006  0.0006  0.0006  0.0016  0.0022  0.0020  0.0005  0.0022 </r>
        <r>  0.0000  0.0003  0.0008  0.0006  0.0036  0.0003  0.0028  0.0026  0.0003 </r>
        <r>  0.0000  0.0002  0.0014  0.0002  0.0008  0.0020  0.0040  0.0010  0.0034 </r>
        <r>  0.0001  0.0007  0.0006  0.0006  0.0017  0.0020  0.0018  0.0004  0.0025 </r>
        <r>  0.0001  0.0004  0.0009  0.0006  0.0040  0.0003  0.0026  0.0023  0.0003 </r>
       </set>
       <set comment="band 93">
        <r>  0.0000  0.0037  0.0000  0.0027  0.0017  0.0090  0.0000  0.0124  0.0012 </r>
        <r>  0.0000  0.0003  0.0065  0.0003  0.0062  0.0041  0.0002  0.0042  0.0062 </r>
        <r>  0.0000  0.0003  0.0073  0.0003  0.0056  0.0037  0.0002  0.0037  0.0056 </r>
        <r>  0.0000  0.0001  0.0000  0.0001  0.0030  0.0021  0.0099  0.0021  0.0030 </r>
        <r>  0.0000  0.0001  0.0000  0.0001  0.0027  0.0019  0.0110  0.0019  0.0027 </r>
        <r>  0.0000  0.0000  0.0000  0.0004  0.0002  0.0114  0.0024  0.0025  0.0000 </r>
        <r>  0.0000  0.0001  0.0000  0.0008  0.0001  0.0004  0.0090  0.0090  0.0004 </r>
        <r>  0.0000  0.0014  0.0000  0.0003  0.0006  0.0000  0.0207  0.0013  0.0003 </r>
        <r>  0.0001  0.0008  0.0006  0.0006  0.0015  0.0018  0.0015  0.0006  0.0027 </r>
        <r>  0.0000  0.0003  0.0013  0.0002  0.0007  0.0018  0.0038  0.0012  0.0036 </r>
        <r>  0.0000  0.0004  0.0010  0.0005  0.0040  0.0002  0.0030  0.0025  0.0002 </r>
        <r>  0.0001  0.0007  0.0005  0.0006  0.0014  0.0020  0.0018  0.0007  0.0024 </r>
        <r>  0.0000  0.0003  0.0012  0.0002  0.0006  0.0020  0.0040  0.0013  0.0033 </r>
        <r>  0.0000  0.0003  0.0010  0.0004  0.0036  0.0002  0.0032  0.0028  0.0002 </r>
       </set>
       <set comment="band 94">
        <r>  0.0000  0.0000  0.0055  0.0000  0.0000  0.0000  0.0000  0.0000  0.0000 </r>
        <r>  0.0000  0.0004  0.0000  0.0003  0.0076  0.0144  0.0000  0.0144  0.0076 </r>
        <r>  0.0000  0.0004  0.0000  0.0004  0.0076  0.0144  0.0000  0.0145  0.0076 </r>
        <r>  0.0000  0.0003  0.0000  0.0003  0.0004  0.0000  0.0000  0.0000  0.0004 </r>
        <r>  0.0000  0.0003  0.0000  0.0003  0.0004  0.0000  0.0000  0.0000  0.0004 </r>
        <r>  0.0000  0.0003  0.0018  0.0010  0.0026  0.0001  0.0000  0.0000  0.0078 </r>
        <r>  0.0000  0.0012  0.0018  0.0000  0.0106  0.0000  0.0000  0.0001  0.0000 </r>
        <r>  0.0000  0.0003  0.0018  0.0009  0.0026  0.0001  0.0000  0.0000  0.0080 </r>
        <r>  0.0001  0.0003  0.0007  0.0002  0.0003  0.0051  0.0087  0.0018  0.0006 </r>
        <r>  0.0001  0.0003  0.0007  0.0002  0.0003  0.0051  0.0087  0.0018  0.0006 </r>
        <r>  0.0001  0.0002  0.0007  0.0003  0.0008  0.0001  0.0087  0.0068  0.0001 </r>
        <r>  0.0001  0.0003  0.0007  0.0002  0.0003  0.0051  0.0087  0.0018  0.0006 </r>
        <r>  0.0001  0.0003  0.0007  0.0002  0.0003  0.0050  0.0086  0.0018  0.0007 </r>
        <r>  0.0001  0.0001  0.0007  0.0003  0.0008  0.0001  0.0087  0.0067  0.0001 </r>
       </set>
       <set comment="band 95">
        <r>  0.0000  0.0000  0.0000  0.0000  0.0096  0.0000  0.0000  0.0000  0.0045 </r>
        <r>  0.0000  0.0003  0.0002  0.0004  0.0035  0.0030  0.0196  0.0030  0.0036 </r>
        <r>  0.0000  0.0004  0.0002  0.0004  0.0043  0.0036  0.0153  0.0037  0.0041 </r>
        <r>  0.0004  0.0025  0.0037  0.0025  0.0001  0.0000  0.0005  0.0000  0.0000 </r>
        <r>  0.0004  0.0029  0.0029  0.0030  0.0000  0.0000  0.0004  0.0000  0.0001 </r>
        <r>  0.0001  0.0010  0.0004  0.0018  0.0010  0.0049  0.0010  0.0022  0.0057 </r>
        <r>  0.0002  0.0023  0.0003  0.0001  0.0054  0.0001  0.0017  0.0058  0.0002 </r>
        <r>  0.0007  0.0001  0.0000  0.0001  0.0007  0.0002  0.0053  0.0001  0.0001 </r>
        <r>  0.0004  0.0003  0.0007  0.0002  0.0009  0.0029  0.0082  0.0041  0.0006 </r>
        <r>  0.0018  0.0010  0.0002  0.0007  0.0028  0.0076  0.0018  0.0024  0.0020 </r>
        <r>  0.0015  0.0001  0.0003  0.0014  0.0014  0.0027  0.0029  0.0069  0.0027 </r>
        <r>  0.0006  0.0004  0.0006  0.0003  0.0011  0.0020  0.0084  0.0034  0.0009 </r>
        <r>  0.0020  0.0010  0.0001  0.0007  0.0030  0.0068  0.0022  0.0020  0.0021 </r>
        <r>  0.0017  0.0001  0.0002  0.0015  0.0015  0.0021  0.0033  0.0060  0.0031 </r>
       </set>
       <set comment="band 96">
        <r>  0.0000  0.0000  0.0000  0.0000  0.0045  0.0000  0.0000  0.0000  0.0098 </r>
        <r>  0.0000  0.0006  0.0002  0.0003  0.0054  0.0035  0.0154  0.0039  0.0034 </r>
        <r>  0.0000  0.0003  0.0002  0.0004  0.0034  0.0031  0.0188  0.0030  0.0038 </r>
        <r>  0.0003  0.0028  0.0029  0.0033  0.0000  0.0000  0.0004  0.0000  0.0004 </r>
        <r>  0.0004  0.0025  0.0035  0.0024  0.0002  0.0000  0.0005  0.0000  0.0002 </r>
        <r>  0.0006  0.0001  0.0001  0.0007  0.0016  0.0017  0.0046  0.0001  0.0004 </r>
        <r>  0.0005  0.0011  0.0002  0.0003  0.0026  0.0001  0.0033  0.0027  0.0003 </r>
        <r>  0.0000  0.0011  0.0005  0.0023  0.0019  0.0065  0.0001  0.0020  0.0059 </r>
        <r>  0.0020  0.0015  0.0000  0.0006  0.0031  0.0076  0.0009  0.0029  0.0024 </r>
        <r>  0.0009  0.0008  0.0006  0.0001  0.0017  0.0016  0.0072  0.0039  0.0011 </r>
        <r>  0.0013  0.0002  0.0004  0.0009  0.0013  0.0029  0.0059  0.0035  0.0024 </r>
        <r>  0.0022  0.0013  0.0001  0.0006  0.0032  0.0066  0.0004  0.0031  0.0025 </r>
        <r>  0.0006  0.0008  0.0006  0.0001  0.0011  0.0026  0.0068  0.0051  0.0009 </r>
        <r>  0.0008  0.0002  0.0004  0.0008  0.0008  0.0037  0.0056  0.0055  0.0017 </r>
       </set>
      </set>
     </set>
    </set>
   </array>
  </projected>
 </calculation>
 <structure name="finalpos" >
  <crystal>
   <varray name="basis" >
    <v>       8.72996100       0.00000000       0.00000000 </v>
    <v>      -4.36498100       7.56036800       0.00000000 </v>
    <v>       0.00000000       0.00000000      10.81646900 </v>
   </varray>
   <i name="volume">    713.90553438 </i>
   <varray name="rec_basis" >
    <v>       0.11454805       0.06613435       0.00000000 </v>
    <v>       0.00000000       0.13226869       0.00000000 </v>
    <v>       0.00000000       0.00000000       0.09245161 </v>
   </varray>
  </crystal>
  <varray name="positions" >
   <v>       0.00000000       0.00000000       0.00000000 </v>
   <v>       0.33333300       0.66666700       0.32532400 </v>
   <v>       0.66666700       0.33333300       0.67467600 </v>
   <v>       0.33333300       0.66666700       0.80751800 </v>
   <v>       0.66666700       0.33333300       0.19248200 </v>
   <v>       0.00000000       0.50000000       0.00000000 </v>
   <v>       0.50000000       0.00000000       0.00000000 </v>
   <v>       0.50000000       0.50000000       0.00000000 </v>
   <v>       0.16502400       0.83497600       0.66246600 </v>
   <v>       0.66995100       0.83497600       0.66246600 </v>
   <v>       0.16502400       0.33004900       0.66246600 </v>
   <v>       0.83497600       0.16502400       0.33753400 </v>
   <v>       0.33004900       0.16502400       0.33753400 </v>
   <v>       0.83497600       0.66995100       0.33753400 </v>
  </varray>
 </structure>
</modeling>
